 argument  1 = /home/hvandam/nwchem-1-srp-hpc/QA/tests/ZSM-5/nwc/1-propanol-dft-pbe-thermo.nw



============================== echo of input deck ==============================
echo
start 1-propanol-dat

memory heap 100 mb stack 500 mb global 1024 mb

geometry
  #load ../xyz/1-propanol.xyz
  load 1-propanol.xyz
end

basis "cc-pvdz" spherical
  * library cc-pvdz
end
basis "cc-pvtz" spherical
  * library cc-pvtz
end
basis "cc-pvqz" spherical
  * library cc-pvqz
end
basis "cc-pv5z" spherical
  * library cc-pv5z
end
basis "cc-pv6z" spherical
  * library cc-pv6z
end

dft
  direct
  # select PBE functional following https://doi.org/10.1002/aic.15517
  xc xpbe96 cpbe96
  convergence energy 1e-8 density 1e-7 gradient 1e-6
end

set int:txs:limxmem              50000000

set "ao basis" "cc-pvdz"
task dft optimize
task dft frequencies
vib
  reuse
  temp 9 198.15 298.15 398.15 498.15 598.15 698.15 798.15 898.15 998.15
end
task dft frequencies

set "ao basis" "cc-pvtz"
task dft optimize
task dft frequencies
vib
  reuse
  temp 9 198.15 298.15 398.15 498.15 598.15 698.15 798.15 898.15 998.15
end
task dft frequencies

set "ao basis" "cc-pvqz"
task dft optimize
task dft frequencies
vib
  reuse
  temp 9 198.15 298.15 398.15 498.15 598.15 698.15 798.15 898.15 998.15
end
task dft frequencies

#set "ao basis" "cc-pv5z"
#task dft optimize

#set "ao basis" "cc-pv6z"
#task dft optimize
================================================================================


                                         
                                         


             Northwest Computational Chemistry Package (NWChem) 7.0.1
             --------------------------------------------------------


                    Environmental Molecular Sciences Laboratory
                       Pacific Northwest National Laboratory
                                Richland, WA 99352

                              Copyright (c) 1994-2020
                       Pacific Northwest National Laboratory
                            Battelle Memorial Institute

             NWChem is an open-source computational chemistry package
                        distributed under the terms of the
                      Educational Community License (ECL) 2.0
             A copy of the license is included with this distribution
                              in the LICENSE.TXT file

                                  ACKNOWLEDGMENT
                                  --------------

            This software and its documentation were developed at the
            EMSL at Pacific Northwest National Laboratory, a multiprogram
            national laboratory, operated for the U.S. Department of Energy
            by Battelle under Contract Number DE-AC05-76RL01830. Support
            for this work was provided by the Department of Energy Office
            of Biological and Environmental Research, Office of Basic
            Energy Sciences, and the Office of Advanced Scientific Computing.


           Job information
           ---------------

    hostname        = node003
    program         = /home/hvandam/nwchem-1-srp-hpc/bin/LINUX64/nwchem
    date            = Mon Oct 17 14:50:27 2022

    compiled        = Fri_Jul_08_12:50:28_2022
    source          = /home/hvandam/nwchem-1-srp-hpc
    nwchem branch   = 7.0.0
    nwchem revision = nwchem_on_git-4025-gba861c8c44
    ga revision     = 5.8.1
    use scalapack   = F
    input           = /home/hvandam/nwchem-1-srp-hpc/QA/tests/ZSM-5/nwc/1-propanol-dft-pbe-thermo.nw
    prefix          = 1-propanol-dat.
    data base       = ./1-propanol-dat.db
    status          = startup
    nproc           =       16
    time left       =     -1s



           Memory information
           ------------------

    heap     =   13107200 doubles =    100.0 Mbytes
    stack    =   65535997 doubles =    500.0 Mbytes
    global   =  134217728 doubles =   1024.0 Mbytes (distinct from heap & stack)
    total    =  212860925 doubles =   1624.0 Mbytes
    verify   = yes
    hardfail = no 


           Directory information
           ---------------------

  0 permanent = .
  0 scratch   = .




                                NWChem Input Module
                                -------------------



 Scaling coordinates for geometry "geometry" by  1.889725989
 (inverse scale =  0.529177249)

 C1  symmetry detected

          ------
          auto-z
          ------
  no constraints, skipping    0.0000000000000000     
  no constraints, skipping    0.0000000000000000     


                             Geometry "geometry" -> ""
                             -------------------------

 Output coordinates in angstroms (scale by  1.889725989 to convert to a.u.)

  No.       Tag          Charge          X              Y              Z
 ---- ---------------- ---------- -------------- -------------- --------------
    1 C                    6.0000    -0.12687659     1.87428415    -0.00675145
    2 C                    6.0000     0.51603242     0.50016786     0.04683523
    3 C                    6.0000    -0.52372034    -0.61019652    -0.00042159
    4 O                    8.0000     0.11962944    -1.87639669     0.05469538
    5 H                    1.0000     0.64000661     2.65420958     0.02913153
    6 H                    1.0000    -0.80380069     2.02398737     0.84040754
    7 H                    1.0000    -0.69943898     2.00314717    -0.93102020
    8 H                    1.0000     1.11537087     0.40367649     0.95984164
    9 H                    1.0000     1.21758860     0.38580207    -0.78818422
   10 H                    1.0000    -1.11765031    -0.56254221    -0.91890368
   11 H                    1.0000    -1.20593017    -0.54124281     0.85272734
   12 H                    1.0000     0.70420567    -1.94139701    -0.71953608

      Atomic Mass 
      ----------- 

      C                 12.000000
      O                 15.994910
      H                  1.007825


 Effective nuclear repulsion energy (a.u.)     130.8158997677

            Nuclear Dipole moment (a.u.) 
            ----------------------------
        X                 Y               Z
 ---------------- ---------------- ----------------
    -0.0000000000     0.0000000000    -0.0000000000



                                Z-matrix (autoz)
                                -------- 

 Units are Angstrom for bonds and degrees for angles

      Type          Name      I     J     K     L     M      Value
      ----------- --------  ----- ----- ----- ----- ----- ----------
    1 Stretch                  1     2                       1.51802
    2 Stretch                  1     5                       1.09439
    3 Stretch                  1     6                       1.09468
    4 Stretch                  1     7                       1.09485
    5 Stretch                  2     3                       1.52192
    6 Stretch                  2     8                       1.09640
    7 Stretch                  2     9                       1.09659
    8 Stretch                  3     4                       1.42134
    9 Stretch                  3    10                       1.09482
   10 Stretch                  3    11                       1.09454
   11 Stretch                  4    12                       0.97231
   12 Bend                     1     2     3               111.71449
   13 Bend                     1     2     8               109.91169
   14 Bend                     1     2     9               109.78392
   15 Bend                     2     1     5               110.31409
   16 Bend                     2     1     6               110.99991
   17 Bend                     2     1     7               110.96653
   18 Bend                     2     3     4               109.84706
   19 Bend                     2     3    10               111.40237
   20 Bend                     2     3    11               110.83348
   21 Bend                     3     2     8               109.57900
   22 Bend                     3     2     9               109.71498
   23 Bend                     3     4    12               107.50640
   24 Bend                     4     3    10               108.47312
   25 Bend                     4     3    11               107.93971
   26 Bend                     5     1     6               108.08873
   27 Bend                     5     1     7               108.07485
   28 Bend                     6     1     7               108.29027
   29 Bend                     8     2     9               105.97384
   30 Bend                    10     3    11               108.24283
   31 Torsion                  1     2     3     4        -179.88104
   32 Torsion                  1     2     3    10          59.90094
   33 Torsion                  1     2     3    11         -60.68964
   34 Torsion                  2     3     4    12         -60.67187
   35 Torsion                  3     2     1     5         179.96843
   36 Torsion                  3     2     1     6          60.18399
   37 Torsion                  3     2     1     7         -60.28604
   38 Torsion                  4     3     2     8         -57.82664
   39 Torsion                  4     3     2     9          58.13235
   40 Torsion                  5     1     2     8          58.10546
   41 Torsion                  5     1     2     9         -58.08462
   42 Torsion                  6     1     2     8         -61.67899
   43 Torsion                  6     1     2     9        -177.86907
   44 Torsion                  7     1     2     8         177.85099
   45 Torsion                  7     1     2     9          61.66091
   46 Torsion                  8     2     3    10        -178.04467
   47 Torsion                  8     2     3    11          61.36475
   48 Torsion                  9     2     3    10         -62.08568
   49 Torsion                  9     2     3    11         177.32374
   50 Torsion                 10     3     4    12          61.30790
   51 Torsion                 11     3     4    12         178.37779


            XYZ format geometry
            -------------------
    12
 geometry
 C                    -0.12687659     1.87428415    -0.00675145
 C                     0.51603242     0.50016786     0.04683523
 C                    -0.52372034    -0.61019652    -0.00042159
 O                     0.11962944    -1.87639669     0.05469538
 H                     0.64000661     2.65420958     0.02913153
 H                    -0.80380069     2.02398737     0.84040754
 H                    -0.69943898     2.00314717    -0.93102020
 H                     1.11537087     0.40367649     0.95984164
 H                     1.21758860     0.38580207    -0.78818422
 H                    -1.11765031    -0.56254221    -0.91890368
 H                    -1.20593017    -0.54124281     0.85272734
 H                     0.70420567    -1.94139701    -0.71953608

 ==============================================================================
                                internuclear distances
 ------------------------------------------------------------------------------
       center one      |      center two      | atomic units |  angstroms
 ------------------------------------------------------------------------------
    2 C                |   1 C                |     2.86865  |     1.51802
    3 C                |   2 C                |     2.87600  |     1.52192
    4 O                |   3 C                |     2.68594  |     1.42134
    5 H                |   1 C                |     2.06809  |     1.09439
    6 H                |   1 C                |     2.06864  |     1.09468
    7 H                |   1 C                |     2.06897  |     1.09485
    8 H                |   2 C                |     2.07190  |     1.09640
    9 H                |   2 C                |     2.07226  |     1.09659
   10 H                |   3 C                |     2.06891  |     1.09482
   11 H                |   3 C                |     2.06839  |     1.09454
   12 H                |   4 O                |     1.83740  |     0.97231
 ------------------------------------------------------------------------------
                         number of included internuclear distances:         11
 ==============================================================================



 ==============================================================================
                                 internuclear angles
 ------------------------------------------------------------------------------
        center 1       |       center 2       |       center 3       |  degrees
 ------------------------------------------------------------------------------
    2 C                |   1 C                |   5 H                |   110.31
    2 C                |   1 C                |   6 H                |   111.00
    2 C                |   1 C                |   7 H                |   110.97
    5 H                |   1 C                |   6 H                |   108.09
    5 H                |   1 C                |   7 H                |   108.07
    6 H                |   1 C                |   7 H                |   108.29
    1 C                |   2 C                |   3 C                |   111.71
    1 C                |   2 C                |   8 H                |   109.91
    1 C                |   2 C                |   9 H                |   109.78
    3 C                |   2 C                |   8 H                |   109.58
    3 C                |   2 C                |   9 H                |   109.71
    8 H                |   2 C                |   9 H                |   105.97
    2 C                |   3 C                |   4 O                |   109.85
    2 C                |   3 C                |  10 H                |   111.40
    2 C                |   3 C                |  11 H                |   110.83
    4 O                |   3 C                |  10 H                |   108.47
    4 O                |   3 C                |  11 H                |   107.94
   10 H                |   3 C                |  11 H                |   108.24
    3 C                |   4 O                |  12 H                |   107.51
 ------------------------------------------------------------------------------
                            number of included internuclear angles:         19
 ==============================================================================





 Summary of "cc-pvdz" -> "" (spherical)
 ------------------------------------------------------------------------------
       Tag                 Description            Shells   Functions and Types
 ---------------- ------------------------------  ------  ---------------------
 *                          cc-pvdz                   on all atoms 




 Summary of "cc-pvtz" -> "" (spherical)
 ------------------------------------------------------------------------------
       Tag                 Description            Shells   Functions and Types
 ---------------- ------------------------------  ------  ---------------------
 *                          cc-pvtz                   on all atoms 




 Summary of "cc-pvqz" -> "" (spherical)
 ------------------------------------------------------------------------------
       Tag                 Description            Shells   Functions and Types
 ---------------- ------------------------------  ------  ---------------------
 *                          cc-pvqz                   on all atoms 




 Summary of "cc-pv5z" -> "" (spherical)
 ------------------------------------------------------------------------------
       Tag                 Description            Shells   Functions and Types
 ---------------- ------------------------------  ------  ---------------------
 *                          cc-pv5z                   on all atoms 




 Summary of "cc-pv6z" -> "" (spherical)
 ------------------------------------------------------------------------------
       Tag                 Description            Shells   Functions and Types
 ---------------- ------------------------------  ------  ---------------------
 *                          cc-pv6z                   on all atoms 


  pbe96 is a nonlocal functional; adding pw91lda local functional. 


                           NWChem Geometry Optimization
                           ----------------------------


  no constraints, skipping    0.0000000000000000     
 maximum gradient threshold         (gmax) =   0.000450
 rms gradient threshold             (grms) =   0.000300
 maximum cartesian step threshold   (xmax) =   0.001800
 rms cartesian step threshold       (xrms) =   0.001200
 fixed trust radius                (trust) =   0.300000
 maximum step size to saddle      (sadstp) =   0.100000
 energy precision                  (eprec) =   5.0D-06
 maximum number of steps          (nptopt) =   40
 initial hessian option           (inhess) =    0
 line search option               (linopt) =    1
 hessian update option            (modupd) =    1
 saddle point option              (modsad) =    0
 initial eigen-mode to follow     (moddir) =    0
 initial variable to follow       (vardir) =    0
 follow first negative mode     (firstneg) =    T
 apply conjugacy                    (opcg) =    F
 source of zmatrix                         =   autoz   


          -------------------
          Energy Minimization
          -------------------


 Names of Z-matrix variables 
    1              2              3              4              5         
    6              7              8              9             10         
   11             12             13             14             15         
   16             17             18             19             20         
   21             22             23             24             25         
   26             27             28             29             30         
   31             32             33             34             35         
   36             37             38             39             40         
   41             42             43             44             45         
   46             47             48             49             50         
   51         

 Variables with the same non-blank name are constrained to be equal


 Using diagonal initial Hessian 
 Scaling for Hessian diagonals: bonds = 1.00  angles = 0.25  torsions = 0.10

          --------
          Step   0
          --------


                         Geometry "geometry" -> "geometry"
                         ---------------------------------

 Output coordinates in angstroms (scale by  1.889725989 to convert to a.u.)

  No.       Tag          Charge          X              Y              Z
 ---- ---------------- ---------- -------------- -------------- --------------
    1 C                    6.0000    -0.12687659     1.87428415    -0.00675145
    2 C                    6.0000     0.51603242     0.50016786     0.04683523
    3 C                    6.0000    -0.52372034    -0.61019652    -0.00042159
    4 O                    8.0000     0.11962944    -1.87639669     0.05469538
    5 H                    1.0000     0.64000661     2.65420958     0.02913153
    6 H                    1.0000    -0.80380069     2.02398737     0.84040754
    7 H                    1.0000    -0.69943898     2.00314717    -0.93102020
    8 H                    1.0000     1.11537087     0.40367649     0.95984164
    9 H                    1.0000     1.21758860     0.38580207    -0.78818422
   10 H                    1.0000    -1.11765031    -0.56254221    -0.91890368
   11 H                    1.0000    -1.20593017    -0.54124281     0.85272734
   12 H                    1.0000     0.70420567    -1.94139701    -0.71953608

      Atomic Mass 
      ----------- 

      C                 12.000000
      O                 15.994910
      H                  1.007825


 Effective nuclear repulsion energy (a.u.)     130.8158997677

            Nuclear Dipole moment (a.u.) 
            ----------------------------
        X                 Y               Z
 ---------------- ---------------- ----------------
    -0.0000000000     0.0000000000    -0.0000000000


                                 NWChem DFT Module
                                 -----------------


                      Basis "ao basis" -> "cc-pvdz" (spherical)
                      -----
  C (Carbon)
  ----------
            Exponent  Coefficients 
       -------------- ---------------------------------------------------------
  1 S  6.66500000E+03  0.000692
  1 S  1.00000000E+03  0.005329
  1 S  2.28000000E+02  0.027077
  1 S  6.47100000E+01  0.101718
  1 S  2.10600000E+01  0.274740
  1 S  7.49500000E+00  0.448564
  1 S  2.79700000E+00  0.285074
  1 S  5.21500000E-01  0.015204

  2 S  6.66500000E+03 -0.000146
  2 S  1.00000000E+03 -0.001154
  2 S  2.28000000E+02 -0.005725
  2 S  6.47100000E+01 -0.023312
  2 S  2.10600000E+01 -0.063955
  2 S  7.49500000E+00 -0.149981
  2 S  2.79700000E+00 -0.127262
  2 S  5.21500000E-01  0.544529

  3 S  1.59600000E-01  1.000000

  4 P  9.43900000E+00  0.038109
  4 P  2.00200000E+00  0.209480
  4 P  5.45600000E-01  0.508557

  5 P  1.51700000E-01  1.000000

  6 D  5.50000000E-01  1.000000

  O (Oxygen)
  ----------
            Exponent  Coefficients 
       -------------- ---------------------------------------------------------
  1 S  1.17200000E+04  0.000710
  1 S  1.75900000E+03  0.005470
  1 S  4.00800000E+02  0.027837
  1 S  1.13700000E+02  0.104800
  1 S  3.70300000E+01  0.283062
  1 S  1.32700000E+01  0.448719
  1 S  5.02500000E+00  0.270952
  1 S  1.01300000E+00  0.015458

  2 S  1.17200000E+04 -0.000160
  2 S  1.75900000E+03 -0.001263
  2 S  4.00800000E+02 -0.006267
  2 S  1.13700000E+02 -0.025716
  2 S  3.70300000E+01 -0.070924
  2 S  1.32700000E+01 -0.165411
  2 S  5.02500000E+00 -0.116955
  2 S  1.01300000E+00  0.557368

  3 S  3.02300000E-01  1.000000

  4 P  1.77000000E+01  0.043018
  4 P  3.85400000E+00  0.228913
  4 P  1.04600000E+00  0.508728

  5 P  2.75300000E-01  1.000000

  6 D  1.18500000E+00  1.000000

  H (Hydrogen)
  ------------
            Exponent  Coefficients 
       -------------- ---------------------------------------------------------
  1 S  1.30100000E+01  0.019685
  1 S  1.96200000E+00  0.137977
  1 S  4.44600000E-01  0.478148

  2 S  1.22000000E-01  1.000000

  3 P  7.27000000E-01  1.000000



 Summary of "ao basis" -> "cc-pvdz" (spherical)
 ------------------------------------------------------------------------------
       Tag                 Description            Shells   Functions and Types
 ---------------- ------------------------------  ------  ---------------------
 C                          cc-pvdz                  6       14   3s2p1d
 O                          cc-pvdz                  6       14   3s2p1d
 H                          cc-pvdz                  3        5   2s1p




 Summary of "ao basis" -> "cc-pvdz" (spherical)
 ------------------------------------------------------------------------------
       Tag                 Description            Shells   Functions and Types
 ---------------- ------------------------------  ------  ---------------------
 C                          cc-pvdz                  6       14   3s2p1d
 O                          cc-pvdz                  6       14   3s2p1d
 H                          cc-pvdz                  3        5   2s1p


  texas integral default override: limxmem =             50000000
  Caching 1-el integrals 
  itol2e modified to match energy
  convergence criterion.
  tol_rho modified to match energy
  convergence criterion.

            General Information
            -------------------
          SCF calculation type: DFT
          Wavefunction type:  closed shell.
          No. of atoms     :    12
          No. of electrons :    34
           Alpha electrons :    17
            Beta electrons :    17
          Charge           :     0
          Spin multiplicity:     1
          Use of symmetry is: off; symmetry adaption is: off
          Maximum number of iterations:  50
          This is a Direct SCF calculation.
          AO basis - number of functions:    96
                     number of shells:    48
          Convergence on energy requested:  1.00D-08
          Convergence on density requested:  1.00D-07
          Convergence on gradient requested:  1.00D-06

              XC Information
              --------------
          PerdewBurkeErnzerhof Exchange Functional  1.000          
            Perdew 1991 LDA Correlation Functional  1.000 local    
           PerdewBurkeErnz. Correlation Functional  1.000 non-local

             Grid Information
             ----------------
          Grid used for XC integration:  medium    
          Radial quadrature: Mura-Knowles        
          Angular quadrature: Lebedev. 
          Tag              B.-S. Rad. Rad. Pts. Rad. Cut. Ang. Pts.
          ---              ---------- --------- --------- ---------
          C                   0.70       49          11.0       434
          O                   0.60       49          12.0       434
          H                   0.35       45          12.0       434
          Grid pruning is: on 
          Number of quadrature shells:   556
          Spatial weights used:  Erf1

          Convergence Information
          -----------------------
          Convergence aids based upon iterative change in 
          total energy or number of iterations. 
          Levelshifting, if invoked, occurs when the 
          HOMO/LUMO gap drops below (HL_TOL):  1.00D-02
          DIIS, if invoked, will attempt to extrapolate 
          using up to (NFOCK): 10 stored Fock matrices.

                    Damping( 0%)  Levelshifting(0.5)       DIIS
                  --------------- ------------------- ---------------
          dE  on:    start            ASAP                start   
          dE off:    2 iters         50 iters            50 iters 


      Screening Tolerance Information
      -------------------------------
          Density screening/tol_rho:  1.00D-11
          AO Gaussian exp screening on grid/accAOfunc:  18
          CD Gaussian exp screening on grid/accCDfunc:  20
          XC Gaussian exp screening on grid/accXCfunc:  20
          Schwarz screening/accCoul:  1.00D-09


      Superposition of Atomic Density Guess
      -------------------------------------

 Sum of atomic energies:        -191.75634144

      Non-variational initial energy
      ------------------------------

 Total energy =    -194.236506
 1-e energy   =    -517.295384
 2-e energy   =     192.242978
 HOMO         =      -0.354673
 LUMO         =       0.096365

   Time after variat. SCF:      2.6
   Time prior to 1st pass:      2.6

 Grid_pts file          = ./1-propanol-dat.gridpts.00
 Record size in doubles =  12289        No. of grid_pts per rec  =   3070
 Max. records in memory =      7        Max. recs in file   =    114822


           Memory utilization after 1st SCF pass: 
           Heap Space remaining (MW):       13.01            13008864
          Stack Space remaining (MW):       65.54            65535172

   convergence    iter        energy       DeltaE   RMS-Dens  Diis-err    time
 ---------------- ----- ----------------- --------- --------- ---------  ------
 d= 0,ls=0.0,diis     1   -194.0380361652 -3.25D+02  1.25D-02  5.86D-01     3.5
 d= 0,ls=0.0,diis     2   -194.0108447892  2.72D-02  7.89D-03  8.99D-01     4.3
 d= 0,ls=0.0,diis     3   -194.0893943867 -7.85D-02  1.82D-03  8.97D-02     5.3
 d= 0,ls=0.0,diis     4   -194.0972718737 -7.88D-03  4.70D-04  3.14D-03     6.2
 d= 0,ls=0.0,diis     5   -194.0975835859 -3.12D-04  1.60D-04  4.72D-04     7.2
  Resetting Diis
 d= 0,ls=0.0,diis     6   -194.0976437015 -6.01D-05  2.54D-05  6.89D-06     8.1
 d= 0,ls=0.0,diis     7   -194.0976445844 -8.83D-07  9.92D-06  3.39D-07     9.0
 d= 0,ls=0.0,diis     8   -194.0976445889 -4.46D-09  4.94D-06  3.30D-07    10.0
 d= 0,ls=0.0,diis     9   -194.0976446343 -4.54D-08  7.68D-07  1.55D-08    10.9
 d= 0,ls=0.0,diis    10   -194.0976446358 -1.49D-09  1.91D-07  5.65D-10    11.8
 d= 0,ls=0.0,diis    11   -194.0976446358 -5.24D-11  4.85D-08  4.92D-11    12.8


         Total DFT energy =     -194.097644635834
      One electron energy =     -521.657215801437
           Coulomb energy =      224.376892274231
    Exchange-Corr. energy =      -27.633220876346
 Nuclear repulsion energy =      130.815899767718

 Numeric. integr. density =       33.999998564815

     Total iterative time =     10.2s



                       DFT Final Molecular Orbital Analysis
                       ------------------------------------

 Vector    1  Occ=2.000000D+00  E=-1.874647D+01
              MO Center=  1.2D-01, -1.9D+00,  5.5D-02, r^2= 1.5D-02
   Bfn.  Coefficient  Atom+Function         Bfn.  Coefficient  Atom+Function  
  ----- ------------  ---------------      ----- ------------  ---------------
    43      1.004450   4 O  s         

 Vector    2  Occ=2.000000D+00  E=-9.929076D+00
              MO Center= -5.2D-01, -6.1D-01, -4.2D-04, r^2= 2.8D-02
   Bfn.  Coefficient  Atom+Function         Bfn.  Coefficient  Atom+Function  
  ----- ------------  ---------------      ----- ------------  ---------------
    29      1.007619   3 C  s         

 Vector    3  Occ=2.000000D+00  E=-9.889291D+00
              MO Center=  5.2D-01,  5.0D-01,  4.7D-02, r^2= 2.8D-02
   Bfn.  Coefficient  Atom+Function         Bfn.  Coefficient  Atom+Function  
  ----- ------------  ---------------      ----- ------------  ---------------
    15      1.008253   2 C  s                17     -0.027450   2 C  s         

 Vector    4  Occ=2.000000D+00  E=-9.886479D+00
              MO Center= -1.3D-01,  1.9D+00, -6.7D-03, r^2= 2.8D-02
   Bfn.  Coefficient  Atom+Function         Bfn.  Coefficient  Atom+Function  
  ----- ------------  ---------------      ----- ------------  ---------------
     1      1.007878   1 C  s         

 Vector    5  Occ=2.000000D+00  E=-9.193573D-01
              MO Center=  9.9D-02, -1.6D+00, -8.0D-02, r^2= 6.4D-01
   Bfn.  Coefficient  Atom+Function         Bfn.  Coefficient  Atom+Function  
  ----- ------------  ---------------      ----- ------------  ---------------
    44      0.414111   4 O  s                45      0.382708   4 O  s         
    92      0.180457  12 H  s                30      0.152619   3 C  s         
    33     -0.094961   3 C  py               47      0.086981   4 O  py        
    48     -0.077364   4 O  pz               32      0.060187   3 C  px        
    31      0.045799   3 C  s                82      0.039651  10 H  s         

 Vector    6  Occ=2.000000D+00  E=-7.054054D-01
              MO Center=  1.2D-01,  7.3D-01,  1.0D-02, r^2= 1.9D+00
   Bfn.  Coefficient  Atom+Function         Bfn.  Coefficient  Atom+Function  
  ----- ------------  ---------------      ----- ------------  ---------------
    16      0.279563   2 C  s                 2      0.233274   1 C  s         
    17      0.196773   2 C  s                30      0.151980   3 C  s         
     3      0.123239   1 C  s                77      0.106574   9 H  s         
    72      0.105711   8 H  s                44     -0.097728   4 O  s         
    31      0.093215   3 C  s                45     -0.092922   4 O  s         

 Vector    7  Occ=2.000000D+00  E=-6.023236D-01
              MO Center= -2.4D-01,  3.2D-01, -1.6D-02, r^2= 3.4D+00
   Bfn.  Coefficient  Atom+Function         Bfn.  Coefficient  Atom+Function  
  ----- ------------  ---------------      ----- ------------  ---------------
    30      0.280604   3 C  s                 2     -0.253250   1 C  s         
    31      0.180303   3 C  s                 3     -0.153968   1 C  s         
    92     -0.142946  12 H  s                19     -0.141790   2 C  py        
    87      0.142067  11 H  s                57     -0.136368   5 H  s         
    82      0.128727  10 H  s                62     -0.121665   6 H  s         

 Vector    8  Occ=2.000000D+00  E=-5.338106D-01
              MO Center=  1.1D-01,  3.5D-01,  4.7D-03, r^2= 3.1D+00
   Bfn.  Coefficient  Atom+Function         Bfn.  Coefficient  Atom+Function  
  ----- ------------  ---------------      ----- ------------  ---------------
    16      0.251888   2 C  s                77      0.180293   9 H  s         
     2     -0.169107   1 C  s                72      0.163842   8 H  s         
    30     -0.156004   3 C  s                46      0.139352   4 O  px        
    32      0.130709   3 C  px               87     -0.130472  11 H  s         
    62     -0.124439   6 H  s                67     -0.120464   7 H  s         

 Vector    9  Occ=2.000000D+00  E=-4.463853D-01
              MO Center= -8.3D-02, -7.4D-01, -1.2D-01, r^2= 2.4D+00
   Bfn.  Coefficient  Atom+Function         Bfn.  Coefficient  Atom+Function  
  ----- ------------  ---------------      ----- ------------  ---------------
    48      0.249212   4 O  pz               92     -0.232988  12 H  s         
    34      0.221466   3 C  pz               82     -0.204725  10 H  s         
    33     -0.189350   3 C  py               46     -0.187190   4 O  px        
    72      0.140946   8 H  s                47      0.139498   4 O  py        
    20      0.138125   2 C  pz               18      0.118551   2 C  px        

 Vector   10  Occ=2.000000D+00  E=-4.115245D-01
              MO Center=  4.4D-02,  1.6D-01,  1.3D-02, r^2= 3.0D+00
   Bfn.  Coefficient  Atom+Function         Bfn.  Coefficient  Atom+Function  
  ----- ------------  ---------------      ----- ------------  ---------------
    20      0.230507   2 C  pz               77     -0.195002   9 H  s         
    33      0.192926   3 C  py               34      0.182589   3 C  pz        
     6      0.175819   1 C  pz               46      0.175905   4 O  px        
    47     -0.164815   4 O  py               87      0.153120  11 H  s         
    18     -0.143360   2 C  px               92      0.130878  12 H  s         

 Vector   11  Occ=2.000000D+00  E=-3.738892D-01
              MO Center= -1.8D-01,  3.8D-01, -6.0D-02, r^2= 3.1D+00
   Bfn.  Coefficient  Atom+Function         Bfn.  Coefficient  Atom+Function  
  ----- ------------  ---------------      ----- ------------  ---------------
    32      0.311641   3 C  px                4     -0.262945   1 C  px        
    19     -0.208192   2 C  py               67      0.177174   7 H  s         
    47      0.172915   4 O  py               82     -0.164567  10 H  s         
    18     -0.145054   2 C  px               57     -0.145306   5 H  s         
    87     -0.125060  11 H  s                35      0.112165   3 C  px        

 Vector   12  Occ=2.000000D+00  E=-3.614143D-01
              MO Center= -1.4D-01,  4.2D-01,  7.7D-02, r^2= 3.8D+00
   Bfn.  Coefficient  Atom+Function         Bfn.  Coefficient  Atom+Function  
  ----- ------------  ---------------      ----- ------------  ---------------
     6      0.251829   1 C  pz                5      0.193406   1 C  py        
    47      0.187286   4 O  py               62      0.187699   6 H  s         
    34     -0.181676   3 C  pz               45     -0.166137   4 O  s         
    48     -0.166299   4 O  pz               67     -0.148868   7 H  s         
    19     -0.142132   2 C  py               87     -0.142295  11 H  s         

 Vector   13  Occ=2.000000D+00  E=-3.363966D-01
              MO Center= -7.4D-02,  8.0D-01,  8.6D-02, r^2= 3.5D+00
   Bfn.  Coefficient  Atom+Function         Bfn.  Coefficient  Atom+Function  
  ----- ------------  ---------------      ----- ------------  ---------------
     5      0.310755   1 C  py               57      0.241118   5 H  s         
    19     -0.211355   2 C  py               46      0.211916   4 O  px        
    87      0.188566  11 H  s                34      0.186287   3 C  pz        
     6     -0.157794   1 C  pz                8      0.128737   1 C  py        
    62     -0.128363   6 H  s                92      0.119627  12 H  s         

 Vector   14  Occ=2.000000D+00  E=-3.086775D-01
              MO Center=  1.4D-01,  9.1D-01,  1.9D-02, r^2= 2.8D+00
   Bfn.  Coefficient  Atom+Function         Bfn.  Coefficient  Atom+Function  
  ----- ------------  ---------------      ----- ------------  ---------------
     4      0.314961   1 C  px               18     -0.308156   2 C  px        
    77     -0.198990   9 H  s                32      0.182956   3 C  px        
    62     -0.182092   6 H  s                57      0.166638   5 H  s         
    72     -0.161935   8 H  s                67     -0.145755   7 H  s         
    47      0.135341   4 O  py                7      0.129038   1 C  px        

 Vector   15  Occ=2.000000D+00  E=-2.932128D-01
              MO Center=  2.5D-01,  7.5D-01,  3.7D-02, r^2= 3.0D+00
   Bfn.  Coefficient  Atom+Function         Bfn.  Coefficient  Atom+Function  
  ----- ------------  ---------------      ----- ------------  ---------------
    20      0.318141   2 C  pz               72      0.270064   8 H  s         
     6     -0.255112   1 C  pz               77     -0.239308   9 H  s         
    67      0.230882   7 H  s                62     -0.193466   6 H  s         
    48     -0.146560   4 O  pz               73      0.143768   8 H  s         
    78     -0.139363   9 H  s                68      0.138151   7 H  s         

 Vector   16  Occ=2.000000D+00  E=-2.644174D-01
              MO Center= -9.1D-02, -1.0D+00,  7.1D-02, r^2= 2.7D+00
   Bfn.  Coefficient  Atom+Function         Bfn.  Coefficient  Atom+Function  
  ----- ------------  ---------------      ----- ------------  ---------------
    48      0.319319   4 O  pz               47     -0.289908   4 O  py        
    45      0.220170   4 O  s                50     -0.220856   4 O  py        
    87     -0.214377  11 H  s                34     -0.212927   3 C  pz        
    33      0.196358   3 C  py               51      0.195410   4 O  pz        
    92     -0.188230  12 H  s                82      0.177686  10 H  s         

 Vector   17  Occ=2.000000D+00  E=-2.051211D-01
              MO Center=  2.9D-02, -1.4D+00, -2.6D-02, r^2= 1.7D+00
   Bfn.  Coefficient  Atom+Function         Bfn.  Coefficient  Atom+Function  
  ----- ------------  ---------------      ----- ------------  ---------------
    46      0.429701   4 O  px               49      0.317550   4 O  px        
    48      0.302352   4 O  pz               47      0.253433   4 O  py        
    51      0.226600   4 O  pz               17     -0.224375   2 C  s         
    50      0.200187   4 O  py               82      0.185006  10 H  s         
    19      0.169852   2 C  py                3      0.138507   1 C  s         

 Vector   18  Occ=0.000000D+00  E= 3.312571D-02
              MO Center=  5.3D-01, -1.0D+00, -8.3D-01, r^2= 4.2D+00
   Bfn.  Coefficient  Atom+Function         Bfn.  Coefficient  Atom+Function  
  ----- ------------  ---------------      ----- ------------  ---------------
    93     -0.864366  12 H  s                31      0.801774   3 C  s         
    78     -0.740472   9 H  s                83     -0.601385  10 H  s         
    17      0.593657   2 C  s                45      0.516694   4 O  s         
    21      0.491337   2 C  px                3      0.310644   1 C  s         
    68     -0.260893   7 H  s                73     -0.260118   8 H  s         

 Vector   19  Occ=0.000000D+00  E= 4.533169D-02
              MO Center= -7.8D-02,  1.0D+00,  1.0D-01, r^2= 6.6D+00
   Bfn.  Coefficient  Atom+Function         Bfn.  Coefficient  Atom+Function  
  ----- ------------  ---------------      ----- ------------  ---------------
     3      1.457058   1 C  s                63     -0.749239   6 H  s         
    58     -0.725699   5 H  s                17      0.707988   2 C  s         
    68     -0.594624   7 H  s                93      0.507891  12 H  s         
    88     -0.475062  11 H  s                73     -0.431625   8 H  s         
    45     -0.357009   4 O  s                 8      0.325572   1 C  py        

 Vector   20  Occ=0.000000D+00  E= 7.727834D-02
              MO Center= -2.7D-01,  3.4D-01,  2.3D-01, r^2= 6.2D+00
   Bfn.  Coefficient  Atom+Function         Bfn.  Coefficient  Atom+Function  
  ----- ------------  ---------------      ----- ------------  ---------------
    88     -1.220882  11 H  s                31      1.124887   3 C  s         
    78      0.956206   9 H  s                58      0.762228   5 H  s         
    17     -0.659423   2 C  s                63     -0.624372   6 H  s         
    83     -0.475524  10 H  s                35     -0.472483   3 C  px        
     7     -0.448151   1 C  px               23      0.308856   2 C  pz        

 Vector   21  Occ=0.000000D+00  E= 8.418463D-02
              MO Center= -4.3D-02,  5.7D-01, -1.1D-01, r^2= 6.1D+00
   Bfn.  Coefficient  Atom+Function         Bfn.  Coefficient  Atom+Function  
  ----- ------------  ---------------      ----- ------------  ---------------
    73      1.287073   8 H  s                68     -1.056525   7 H  s         
    83     -1.017012  10 H  s                17     -0.822544   2 C  s         
    37     -0.484277   3 C  pz                9     -0.454708   1 C  pz        
     3      0.416346   1 C  s                23     -0.405186   2 C  pz        
    31      0.377514   3 C  s                88      0.357456  11 H  s         

 Vector   22  Occ=0.000000D+00  E= 1.158149D-01
              MO Center= -2.9D-01,  5.3D-01,  1.9D-02, r^2= 7.4D+00
   Bfn.  Coefficient  Atom+Function         Bfn.  Coefficient  Atom+Function  
  ----- ------------  ---------------      ----- ------------  ---------------
     3      1.456605   1 C  s                63     -1.173413   6 H  s         
    17     -1.027678   2 C  s                31     -0.892428   3 C  s         
    78      0.757445   9 H  s                83      0.739453  10 H  s         
    93     -0.700914  12 H  s                88      0.633335  11 H  s         
    68     -0.445883   7 H  s                73      0.384845   8 H  s         

 Vector   23  Occ=0.000000D+00  E= 1.234375D-01
              MO Center=  4.2D-01,  1.8D+00, -1.7D-01, r^2= 5.5D+00
   Bfn.  Coefficient  Atom+Function         Bfn.  Coefficient  Atom+Function  
  ----- ------------  ---------------      ----- ------------  ---------------
    58      1.748689   5 H  s                17      0.957411   2 C  s         
     7     -0.921056   1 C  px               78     -0.819319   9 H  s         
    68     -0.738573   7 H  s                31     -0.728168   3 C  s         
     8     -0.571286   1 C  py               83      0.523418  10 H  s         
    73     -0.518725   8 H  s                63     -0.459722   6 H  s         

 Vector   24  Occ=0.000000D+00  E= 1.358632D-01
              MO Center=  1.7D-01,  1.1D+00,  3.6D-02, r^2= 5.5D+00
   Bfn.  Coefficient  Atom+Function         Bfn.  Coefficient  Atom+Function  
  ----- ------------  ---------------      ----- ------------  ---------------
    68      1.273946   7 H  s                73      1.275532   8 H  s         
    78     -1.214911   9 H  s                23     -1.167480   2 C  pz        
    63     -1.149063   6 H  s                 9      1.114762   1 C  pz        
    20     -0.291533   2 C  pz               37      0.292621   3 C  pz        
    88     -0.273619  11 H  s                 6      0.271667   1 C  pz        

 Vector   25  Occ=0.000000D+00  E= 1.422909D-01
              MO Center= -7.8D-01,  1.2D-01,  2.8D-02, r^2= 5.6D+00
   Bfn.  Coefficient  Atom+Function         Bfn.  Coefficient  Atom+Function  
  ----- ------------  ---------------      ----- ------------  ---------------
    83      1.448871  10 H  s                88     -1.431046  11 H  s         
    37      1.139306   3 C  pz               73      0.791448   8 H  s         
    68     -0.776267   7 H  s                63      0.753987   6 H  s         
    23     -0.585183   2 C  pz               78     -0.473987   9 H  s         
     9     -0.455849   1 C  pz               34      0.355784   3 C  pz        

 Vector   26  Occ=0.000000D+00  E= 1.764704D-01
              MO Center= -1.7D-01, -5.3D-01, -1.4D-01, r^2= 4.2D+00
   Bfn.  Coefficient  Atom+Function         Bfn.  Coefficient  Atom+Function  
  ----- ------------  ---------------      ----- ------------  ---------------
    36      1.273798   3 C  py               93      0.771796  12 H  s         
    21      0.730041   2 C  px               78     -0.622848   9 H  s         
     3      0.606000   1 C  s                58     -0.528338   5 H  s         
    45      0.520075   4 O  s                50      0.475012   4 O  py        
    49     -0.432900   4 O  px               31     -0.370736   3 C  s         

 Vector   27  Occ=0.000000D+00  E= 1.999678D-01
              MO Center=  4.8D-03,  1.3D+00,  1.6D-02, r^2= 3.3D+00
   Bfn.  Coefficient  Atom+Function         Bfn.  Coefficient  Atom+Function  
  ----- ------------  ---------------      ----- ------------  ---------------
    17      2.050699   2 C  s                 8      1.691562   1 C  py        
     3     -1.419865   1 C  s                21     -1.318816   2 C  px        
    22      1.140949   2 C  py               31     -0.811211   3 C  s         
     7     -0.668114   1 C  px               36     -0.540822   3 C  py        
    78      0.362878   9 H  s                73      0.356053   8 H  s         

 Vector   28  Occ=0.000000D+00  E= 2.146626D-01
              MO Center=  1.1D-01,  1.2D-01,  1.9D-02, r^2= 3.4D+00
   Bfn.  Coefficient  Atom+Function         Bfn.  Coefficient  Atom+Function  
  ----- ------------  ---------------      ----- ------------  ---------------
    22      1.896597   2 C  py               31      1.731988   3 C  s         
    35      1.659936   3 C  px               17     -1.132261   2 C  s         
    21      0.961808   2 C  px                7     -0.777698   1 C  px        
    36      0.688004   3 C  py               63     -0.476204   6 H  s         
    68     -0.478360   7 H  s                83      0.456771  10 H  s         

 Vector   29  Occ=0.000000D+00  E= 3.770991D-01
              MO Center=  1.8D-01,  1.0D+00, -6.9D-03, r^2= 3.5D+00
   Bfn.  Coefficient  Atom+Function         Bfn.  Coefficient  Atom+Function  
  ----- ------------  ---------------      ----- ------------  ---------------
    62      0.517336   6 H  s                72      0.501588   8 H  s         
    78      0.471657   9 H  s                77     -0.457748   9 H  s         
    73     -0.451516   8 H  s                67     -0.449119   7 H  s         
     9     -0.420680   1 C  pz               68      0.271920   7 H  s         
    63     -0.269361   6 H  s                87      0.231674  11 H  s         

 Vector   30  Occ=0.000000D+00  E= 3.990022D-01
              MO Center=  3.2D-02,  7.0D-01,  1.5D-02, r^2= 4.3D+00
   Bfn.  Coefficient  Atom+Function         Bfn.  Coefficient  Atom+Function  
  ----- ------------  ---------------      ----- ------------  ---------------
    21      1.065158   2 C  px                7     -0.830549   1 C  px        
    35     -0.801254   3 C  px               36      0.423783   3 C  py        
    67     -0.359737   7 H  s                32      0.353963   3 C  px        
    45      0.342387   4 O  s                18     -0.338154   2 C  px        
     3      0.336166   1 C  s                 8      0.329899   1 C  py        

 Vector   31  Occ=0.000000D+00  E= 4.113322D-01
              MO Center= -3.2D-01,  3.1D-01, -9.7D-03, r^2= 4.3D+00
   Bfn.  Coefficient  Atom+Function         Bfn.  Coefficient  Atom+Function  
  ----- ------------  ---------------      ----- ------------  ---------------
    35      0.972889   3 C  px               36      0.909343   3 C  py        
    17     -0.755926   2 C  s                33     -0.545739   3 C  py        
    31      0.530959   3 C  s                57      0.461914   5 H  s         
    58     -0.444494   5 H  s                22      0.308961   2 C  py        
    62     -0.266021   6 H  s                72      0.245562   8 H  s         

 Vector   32  Occ=0.000000D+00  E= 4.288005D-01
              MO Center= -2.2D-01,  3.9D-01,  7.5D-02, r^2= 4.6D+00
   Bfn.  Coefficient  Atom+Function         Bfn.  Coefficient  Atom+Function  
  ----- ------------  ---------------      ----- ------------  ---------------
     9      0.748756   1 C  pz               87      0.552599  11 H  s         
    88     -0.533730  11 H  s                82     -0.427006  10 H  s         
    83      0.407031  10 H  s                67      0.398253   7 H  s         
    37     -0.346646   3 C  pz               31     -0.342366   3 C  s         
    17      0.331128   2 C  s                62     -0.331314   6 H  s         

 Vector   33  Occ=0.000000D+00  E= 4.416912D-01
              MO Center= -3.4D-02,  6.4D-01,  1.4D-02, r^2= 4.1D+00
   Bfn.  Coefficient  Atom+Function         Bfn.  Coefficient  Atom+Function  
  ----- ------------  ---------------      ----- ------------  ---------------
     8      0.773929   1 C  py               22     -0.708846   2 C  py        
    31     -0.683926   3 C  s                17      0.598827   2 C  s         
    21     -0.584447   2 C  px                5     -0.454478   1 C  py        
    82      0.371442  10 H  s                33      0.346709   3 C  py        
    57     -0.323516   5 H  s                19      0.257570   2 C  py        

 Vector   34  Occ=0.000000D+00  E= 5.158560D-01
              MO Center=  1.5D-01, -4.9D-01, -2.6D-01, r^2= 5.3D+00
   Bfn.  Coefficient  Atom+Function         Bfn.  Coefficient  Atom+Function  
  ----- ------------  ---------------      ----- ------------  ---------------
    31      1.509469   3 C  s                35      1.439170   3 C  px        
    22      1.024784   2 C  py               93     -1.002758  12 H  s         
     7     -0.937732   1 C  px               21      0.941120   2 C  px        
    92      0.799250  12 H  s                17     -0.630947   2 C  s         
    88      0.596336  11 H  s                45     -0.532594   4 O  s         

 Vector   35  Occ=0.000000D+00  E= 5.375191D-01
              MO Center= -3.0D-01, -2.8D-01, -1.2D-01, r^2= 4.3D+00
   Bfn.  Coefficient  Atom+Function         Bfn.  Coefficient  Atom+Function  
  ----- ------------  ---------------      ----- ------------  ---------------
    36      1.452291   3 C  py               45      0.795316   4 O  s         
     8      0.646965   1 C  py               22      0.557486   2 C  py        
    83     -0.497676  10 H  s                33     -0.472160   3 C  py        
    57     -0.466593   5 H  s                17     -0.404624   2 C  s         
    82      0.404587  10 H  s                50      0.381161   4 O  py        

 Vector   36  Occ=0.000000D+00  E= 5.648184D-01
              MO Center= -4.9D-02, -1.2D-01,  4.2D-02, r^2= 3.9D+00
   Bfn.  Coefficient  Atom+Function         Bfn.  Coefficient  Atom+Function  
  ----- ------------  ---------------      ----- ------------  ---------------
    35     -1.593660   3 C  px               17      1.471179   2 C  s         
    31     -1.387413   3 C  s                21     -1.363052   2 C  px        
    22     -1.070084   2 C  py               83     -0.817550  10 H  s         
    37     -0.585293   3 C  pz               36     -0.572828   3 C  py        
     8      0.550965   1 C  py                7      0.500602   1 C  px        

 Vector   37  Occ=0.000000D+00  E= 5.748797D-01
              MO Center=  3.1D-01,  6.7D-01, -9.1D-03, r^2= 4.0D+00
   Bfn.  Coefficient  Atom+Function         Bfn.  Coefficient  Atom+Function  
  ----- ------------  ---------------      ----- ------------  ---------------
    22      2.374569   2 C  py                8      1.637762   1 C  py        
     3     -1.582779   1 C  s                17      1.331824   2 C  s         
     7     -0.776259   1 C  px               19     -0.692553   2 C  py        
    21     -0.623551   2 C  px               31      0.597213   3 C  s         
    58     -0.536149   5 H  s                 9     -0.510545   1 C  pz        

 Vector   38  Occ=0.000000D+00  E= 5.916305D-01
              MO Center= -6.4D-02,  9.2D-01, -1.1D-01, r^2= 4.3D+00
   Bfn.  Coefficient  Atom+Function         Bfn.  Coefficient  Atom+Function  
  ----- ------------  ---------------      ----- ------------  ---------------
    23      1.787117   2 C  pz                9     -1.572389   1 C  pz        
    37     -1.326527   3 C  pz               68     -1.103085   7 H  s         
    63      1.063796   6 H  s                73     -1.011618   8 H  s         
    78      0.894678   9 H  s                88      0.634075  11 H  s         
    83     -0.606159  10 H  s                 6      0.566628   1 C  pz        

 Vector   39  Occ=0.000000D+00  E= 6.098232D-01
              MO Center= -1.3D-01,  6.8D-01,  4.6D-02, r^2= 4.4D+00
   Bfn.  Coefficient  Atom+Function         Bfn.  Coefficient  Atom+Function  
  ----- ------------  ---------------      ----- ------------  ---------------
    31      0.749330   3 C  s                21      0.698545   2 C  px        
     3      0.675347   1 C  s                58     -0.674605   5 H  s         
    78     -0.595187   9 H  s                88     -0.592238  11 H  s         
    17      0.572571   2 C  s                83     -0.556352  10 H  s         
    35     -0.486860   3 C  px               73     -0.487725   8 H  s         

 Vector   40  Occ=0.000000D+00  E= 6.162069D-01
              MO Center=  1.1D-01,  1.8D+00, -9.6D-03, r^2= 3.6D+00
   Bfn.  Coefficient  Atom+Function         Bfn.  Coefficient  Atom+Function  
  ----- ------------  ---------------      ----- ------------  ---------------
     7      1.690670   1 C  px               58     -1.582313   5 H  s         
    63      1.014743   6 H  s                68      1.011656   7 H  s         
     4     -0.760592   1 C  px               17     -0.584653   2 C  s         
    78      0.427058   9 H  s                 8      0.340634   1 C  py        
    72     -0.333270   8 H  s                22     -0.331341   2 C  py        

 Vector   41  Occ=0.000000D+00  E= 6.242831D-01
              MO Center= -1.3D-01,  8.6D-01, -5.6D-02, r^2= 5.0D+00
   Bfn.  Coefficient  Atom+Function         Bfn.  Coefficient  Atom+Function  
  ----- ------------  ---------------      ----- ------------  ---------------
     9      1.500763   1 C  pz               63     -1.412537   6 H  s         
    68      1.230137   7 H  s                88      0.946818  11 H  s         
    78      0.910935   9 H  s                23      0.870354   2 C  pz        
    37     -0.871461   3 C  pz               83     -0.806126  10 H  s         
    73     -0.740193   8 H  s                 6     -0.633141   1 C  pz        

 Vector   42  Occ=0.000000D+00  E= 6.266060D-01
              MO Center=  1.2D-02, -2.6D-01, -6.0D-02, r^2= 4.1D+00
   Bfn.  Coefficient  Atom+Function         Bfn.  Coefficient  Atom+Function  
  ----- ------------  ---------------      ----- ------------  ---------------
    37      1.362210   3 C  pz               23      1.221391   2 C  pz        
    83      1.207997  10 H  s                88     -1.143116  11 H  s         
    78      1.097207   9 H  s                73     -1.058589   8 H  s         
    34     -0.603564   3 C  pz               20     -0.573079   2 C  pz        
    93     -0.490236  12 H  s                22     -0.419386   2 C  py        

 Vector   43  Occ=0.000000D+00  E= 6.544388D-01
              MO Center=  1.8D-01,  5.9D-01, -3.7D-01, r^2= 4.6D+00
   Bfn.  Coefficient  Atom+Function         Bfn.  Coefficient  Atom+Function  
  ----- ------------  ---------------      ----- ------------  ---------------
    37     -1.060932   3 C  pz               21      1.053100   2 C  px        
    78     -0.883609   9 H  s                23      0.862730   2 C  pz        
    68      0.811890   7 H  s                73     -0.811910   8 H  s         
     7      0.736879   1 C  px               88      0.722770  11 H  s         
    22     -0.594181   2 C  py                8     -0.562274   1 C  py        

 Vector   44  Occ=0.000000D+00  E= 6.628478D-01
              MO Center=  2.2D-01,  3.4D-01,  3.9D-01, r^2= 4.7D+00
   Bfn.  Coefficient  Atom+Function         Bfn.  Coefficient  Atom+Function  
  ----- ------------  ---------------      ----- ------------  ---------------
    21      1.205242   2 C  px               73     -1.065794   8 H  s         
    37      1.016393   3 C  pz               78     -0.769762   9 H  s         
     7      0.660712   1 C  px               35      0.621428   3 C  px        
    83      0.622223  10 H  s                23     -0.608092   2 C  pz        
    63      0.609132   6 H  s                72      0.506685   8 H  s         

 Vector   45  Occ=0.000000D+00  E= 6.790747D-01
              MO Center= -6.7D-01,  9.0D-01, -2.9D-02, r^2= 5.4D+00
   Bfn.  Coefficient  Atom+Function         Bfn.  Coefficient  Atom+Function  
  ----- ------------  ---------------      ----- ------------  ---------------
     8      1.431831   1 C  py               31     -1.263392   3 C  s         
    58     -1.098430   5 H  s                83      1.064455  10 H  s         
    36      1.051610   3 C  py               88      1.052641  11 H  s         
     3      0.991089   1 C  s                35      0.795821   3 C  px        
    63     -0.639876   6 H  s                68     -0.637028   7 H  s         

 Vector   46  Occ=0.000000D+00  E= 8.316000D-01
              MO Center=  1.0D-01,  5.6D-01,  2.3D-02, r^2= 3.0D+00
   Bfn.  Coefficient  Atom+Function         Bfn.  Coefficient  Atom+Function  
  ----- ------------  ---------------      ----- ------------  ---------------
    28      0.294001   2 C  d  2             50     -0.276182   4 O  py        
    14     -0.263598   1 C  d  2             45     -0.264873   4 O  s         
    17     -0.229525   2 C  s                31      0.230218   3 C  s         
    42     -0.228624   3 C  d  2             51      0.220997   4 O  pz        
    92      0.212034  12 H  s                46      0.193220   4 O  px        

 Vector   47  Occ=0.000000D+00  E= 8.460303D-01
              MO Center= -8.4D-02,  1.8D-01, -2.0D-02, r^2= 3.4D+00
   Bfn.  Coefficient  Atom+Function         Bfn.  Coefficient  Atom+Function  
  ----- ------------  ---------------      ----- ------------  ---------------
    51      0.476689   4 O  pz               48     -0.374150   4 O  pz        
    25      0.288391   2 C  d -1             11     -0.281870   1 C  d -1      
    39     -0.259637   3 C  d -1              3      0.239524   1 C  s         
    88     -0.231408  11 H  s                37      0.189913   3 C  pz        
    92      0.188507  12 H  s                45     -0.186827   4 O  s         

 Vector   48  Occ=0.000000D+00  E= 8.936674D-01
              MO Center= -3.3D-02,  5.4D-01,  3.9D-02, r^2= 4.5D+00
   Bfn.  Coefficient  Atom+Function         Bfn.  Coefficient  Atom+Function  
  ----- ------------  ---------------      ----- ------------  ---------------
    31      2.923088   3 C  s                 3      2.303864   1 C  s         
    30     -1.061097   3 C  s                 2     -1.023166   1 C  s         
    17      0.974375   2 C  s                16     -0.808174   2 C  s         
    58     -0.699452   5 H  s                21      0.644286   2 C  px        
     8      0.587467   1 C  py               73     -0.522084   8 H  s         

 Vector   49  Occ=0.000000D+00  E= 9.660190D-01
              MO Center=  2.8D-01, -1.9D+00,  3.5D-02, r^2= 2.5D+00
   Bfn.  Coefficient  Atom+Function         Bfn.  Coefficient  Atom+Function  
  ----- ------------  ---------------      ----- ------------  ---------------
    50      1.369660   4 O  py               31     -1.085903   3 C  s         
    17      1.076468   2 C  s                49     -0.924913   4 O  px        
    93      0.929455  12 H  s                35     -0.717814   3 C  px        
    36      0.591911   3 C  py               47     -0.557031   4 O  py        
    78     -0.490900   9 H  s                37      0.440736   3 C  pz        

 Vector   50  Occ=0.000000D+00  E= 1.015729D+00
              MO Center=  6.1D-02, -1.4D+00, -1.1D-01, r^2= 2.5D+00
   Bfn.  Coefficient  Atom+Function         Bfn.  Coefficient  Atom+Function  
  ----- ------------  ---------------      ----- ------------  ---------------
    31      1.589669   3 C  s                17     -1.400677   2 C  s         
    49     -0.791079   4 O  px               36      0.741197   3 C  py        
    50     -0.644237   4 O  py               21      0.629233   2 C  px        
    46      0.560910   4 O  px               35      0.460092   3 C  px        
    30     -0.397533   3 C  s                 7      0.384849   1 C  px        

 Vector   51  Occ=0.000000D+00  E= 1.067362D+00
              MO Center=  1.4D-01, -4.9D-01, -3.2D-02, r^2= 4.3D+00
   Bfn.  Coefficient  Atom+Function         Bfn.  Coefficient  Atom+Function  
  ----- ------------  ---------------      ----- ------------  ---------------
     3      1.617425   1 C  s                17      1.483260   2 C  s         
    31     -1.351528   3 C  s                22     -1.278248   2 C  py        
    51     -0.931652   4 O  pz               35     -0.671102   3 C  px        
    36     -0.561135   3 C  py                2     -0.534095   1 C  s         
    16     -0.510640   2 C  s                 7      0.412645   1 C  px        

 Vector   52  Occ=0.000000D+00  E= 1.118480D+00
              MO Center=  2.9D-02, -1.2D-01,  2.1D-02, r^2= 4.5D+00
   Bfn.  Coefficient  Atom+Function         Bfn.  Coefficient  Atom+Function  
  ----- ------------  ---------------      ----- ------------  ---------------
    17      1.542047   2 C  s                51     -0.986208   4 O  pz        
     7     -0.979884   1 C  px               22      0.950694   2 C  py        
     3     -0.914503   1 C  s                36     -0.711133   3 C  py        
    37      0.689117   3 C  pz               92     -0.635149  12 H  s         
    49      0.625414   4 O  px               35      0.614678   3 C  px        

 Vector   53  Occ=0.000000D+00  E= 1.150066D+00
              MO Center= -4.3D-03,  3.4D-01,  6.5D-02, r^2= 3.1D+00
   Bfn.  Coefficient  Atom+Function         Bfn.  Coefficient  Atom+Function  
  ----- ------------  ---------------      ----- ------------  ---------------
    37      0.644341   3 C  pz               17     -0.409878   2 C  s         
    25      0.395570   2 C  d -1             80     -0.343502   9 H  py        
     9     -0.332916   1 C  pz               75      0.325753   8 H  py        
    31      0.306443   3 C  s                36      0.280889   3 C  py        
    39      0.257461   3 C  d -1             23     -0.247453   2 C  pz        

 Vector   54  Occ=0.000000D+00  E= 1.156997D+00
              MO Center=  5.4D-02,  7.7D-01,  2.7D-02, r^2= 3.2D+00
   Bfn.  Coefficient  Atom+Function         Bfn.  Coefficient  Atom+Function  
  ----- ------------  ---------------      ----- ------------  ---------------
    23      1.807955   2 C  pz               37     -1.075513   3 C  pz        
     9     -1.036433   1 C  pz               78      0.536400   9 H  s         
    73     -0.514127   8 H  s                72     -0.414098   8 H  s         
    11      0.387754   1 C  d -1             77      0.379909   9 H  s         
    83     -0.325373  10 H  s                88      0.326740  11 H  s         

 Vector   55  Occ=0.000000D+00  E= 1.241770D+00
              MO Center= -1.2D-01, -3.0D-01, -6.3D-02, r^2= 4.6D+00
   Bfn.  Coefficient  Atom+Function         Bfn.  Coefficient  Atom+Function  
  ----- ------------  ---------------      ----- ------------  ---------------
    31      3.313635   3 C  s                 3     -2.870039   1 C  s         
    22      1.352180   2 C  py               30     -1.070205   3 C  s         
    49      0.903365   4 O  px                2      0.829757   1 C  s         
     8      0.619923   1 C  py               29     -0.546830   3 C  s         
    82     -0.450727  10 H  s                45     -0.439966   4 O  s         

 Vector   56  Occ=0.000000D+00  E= 1.287537D+00
              MO Center=  1.4D-01,  1.6D-01, -1.6D-01, r^2= 4.7D+00
   Bfn.  Coefficient  Atom+Function         Bfn.  Coefficient  Atom+Function  
  ----- ------------  ---------------      ----- ------------  ---------------
     3      4.649949   1 C  s                17     -3.467543   2 C  s         
     2     -1.308780   1 C  s                22     -1.277818   2 C  py        
    31     -1.062272   3 C  s                 8     -0.995176   1 C  py        
    16      0.769631   2 C  s                 1     -0.671958   1 C  s         
    57     -0.580592   5 H  s                 7      0.566283   1 C  px        

 Vector   57  Occ=0.000000D+00  E= 1.329446D+00
              MO Center=  2.5D-02, -8.6D-01, -2.3D-01, r^2= 3.2D+00
   Bfn.  Coefficient  Atom+Function         Bfn.  Coefficient  Atom+Function  
  ----- ------------  ---------------      ----- ------------  ---------------
    17      1.253259   2 C  s                51      0.672373   4 O  pz        
    95     -0.589977  12 H  py               21      0.548009   2 C  px        
    35     -0.545546   3 C  px               37     -0.471547   3 C  pz        
     3     -0.438053   1 C  s                50      0.418186   4 O  py        
    92      0.392504  12 H  s                72     -0.333519   8 H  s         

 Vector   58  Occ=0.000000D+00  E= 1.361278D+00
              MO Center= -3.0D-01,  2.2D+00, -2.1D-02, r^2= 1.7D+00
   Bfn.  Coefficient  Atom+Function         Bfn.  Coefficient  Atom+Function  
  ----- ------------  ---------------      ----- ------------  ---------------
    61      0.592930   5 H  pz               69      0.492844   7 H  px        
    64     -0.457952   6 H  px               66     -0.330240   6 H  pz        
    71     -0.280077   7 H  pz               65     -0.206136   6 H  py        
    70      0.201354   7 H  py               37      0.108108   3 C  pz        
    83      0.068374  10 H  s                88     -0.063653  11 H  s         

 Vector   59  Occ=0.000000D+00  E= 1.408530D+00
              MO Center= -3.0D-02,  3.5D-01,  4.3D-02, r^2= 3.7D+00
   Bfn.  Coefficient  Atom+Function         Bfn.  Coefficient  Atom+Function  
  ----- ------------  ---------------      ----- ------------  ---------------
    17      6.237741   2 C  s                31     -3.528934   3 C  s         
     3     -3.376382   1 C  s                21     -2.196252   2 C  px        
     8      1.469897   1 C  py               16     -1.345638   2 C  s         
    36     -1.164976   3 C  py               15     -0.725521   2 C  s         
    22      0.570454   2 C  py               30      0.484147   3 C  s         

 Vector   60  Occ=0.000000D+00  E= 1.431204D+00
              MO Center= -7.7D-02, -4.5D-01, -1.2D-01, r^2= 3.8D+00
   Bfn.  Coefficient  Atom+Function         Bfn.  Coefficient  Atom+Function  
  ----- ------------  ---------------      ----- ------------  ---------------
    17      4.436559   2 C  s                31     -2.869066   3 C  s         
     3     -1.683829   1 C  s                35     -1.519012   3 C  px        
    21     -0.734824   2 C  px                8      0.723695   1 C  py        
    30      0.683365   3 C  s                16     -0.678822   2 C  s         
    22     -0.673058   2 C  py               36     -0.640522   3 C  py        

 Vector   61  Occ=0.000000D+00  E= 1.523026D+00
              MO Center=  1.4D-01,  6.5D-01,  4.5D-02, r^2= 3.0D+00
   Bfn.  Coefficient  Atom+Function         Bfn.  Coefficient  Atom+Function  
  ----- ------------  ---------------      ----- ------------  ---------------
     7      0.863706   1 C  px               22     -0.813359   2 C  py        
    45      0.700422   4 O  s                21     -0.644637   2 C  px        
    24      0.492242   2 C  d -2             30     -0.490358   3 C  s         
    36      0.469048   3 C  py               77      0.450711   9 H  s         
     8      0.395565   1 C  py               38      0.366009   3 C  d -2      

 Vector   62  Occ=0.000000D+00  E= 1.545059D+00
              MO Center= -1.1D-01,  8.0D-01,  3.1D-02, r^2= 3.4D+00
   Bfn.  Coefficient  Atom+Function         Bfn.  Coefficient  Atom+Function  
  ----- ------------  ---------------      ----- ------------  ---------------
    31      2.291617   3 C  s                17     -1.637591   2 C  s         
    36      1.188007   3 C  py               35      0.982666   3 C  px        
    21      0.885246   2 C  px                8      0.770229   1 C  py        
    22      0.739049   2 C  py               19      0.597731   2 C  py        
     7     -0.503570   1 C  px               10      0.438415   1 C  d -2      

 Vector   63  Occ=0.000000D+00  E= 1.546973D+00
              MO Center= -5.7D-02,  1.1D+00, -2.7D-02, r^2= 3.1D+00
   Bfn.  Coefficient  Atom+Function         Bfn.  Coefficient  Atom+Function  
  ----- ------------  ---------------      ----- ------------  ---------------
     9      0.977019   1 C  pz               23     -0.675266   2 C  pz        
    67      0.634202   7 H  s                31      0.615165   3 C  s         
    72      0.580693   8 H  s                27      0.520039   2 C  d  1      
    13      0.464415   1 C  d  1             37      0.459766   3 C  pz        
     7      0.419466   1 C  px               77     -0.366579   9 H  s         

 Vector   64  Occ=0.000000D+00  E= 1.574663D+00
              MO Center=  4.1D-02,  7.3D-01,  1.0D-01, r^2= 3.2D+00
   Bfn.  Coefficient  Atom+Function         Bfn.  Coefficient  Atom+Function  
  ----- ------------  ---------------      ----- ------------  ---------------
    31      0.634914   3 C  s                 9     -0.565558   1 C  pz        
    62      0.526072   6 H  s                41      0.454778   3 C  d  1      
    75     -0.430751   8 H  py               87     -0.412554  11 H  s         
    13     -0.402679   1 C  d  1             25      0.403091   2 C  d -1      
    45     -0.339450   4 O  s                82      0.321351  10 H  s         

 Vector   65  Occ=0.000000D+00  E= 1.588726D+00
              MO Center=  1.1D-03,  4.4D-01, -4.1D-02, r^2= 3.6D+00
   Bfn.  Coefficient  Atom+Function         Bfn.  Coefficient  Atom+Function  
  ----- ------------  ---------------      ----- ------------  ---------------
    31      1.193721   3 C  s                45     -0.713427   4 O  s         
    22      0.588230   2 C  py               21      0.538788   2 C  px        
    37     -0.465593   3 C  pz               36      0.459734   3 C  py        
    78     -0.433943   9 H  s                 3     -0.416655   1 C  s         
    74     -0.409733   8 H  px               44      0.393924   4 O  s         

 Vector   66  Occ=0.000000D+00  E= 1.611000D+00
              MO Center= -2.5D-01,  1.1D-01,  4.0D-02, r^2= 3.2D+00
   Bfn.  Coefficient  Atom+Function         Bfn.  Coefficient  Atom+Function  
  ----- ------------  ---------------      ----- ------------  ---------------
    37      1.097970   3 C  pz               23     -0.810633   2 C  pz        
     9      0.718750   1 C  pz               87     -0.652412  11 H  s         
    41      0.564152   3 C  d  1             22     -0.544938   2 C  py        
    82      0.505554  10 H  s                35     -0.482262   3 C  px        
    31     -0.478732   3 C  s                 3      0.435862   1 C  s         

 Vector   67  Occ=0.000000D+00  E= 1.619458D+00
              MO Center= -7.5D-02,  9.9D-01, -7.3D-03, r^2= 3.6D+00
   Bfn.  Coefficient  Atom+Function         Bfn.  Coefficient  Atom+Function  
  ----- ------------  ---------------      ----- ------------  ---------------
     7      1.089247   1 C  px               22     -1.026404   2 C  py        
     3      0.863739   1 C  s                35     -0.689589   3 C  px        
    57     -0.614211   5 H  s                31     -0.525314   3 C  s         
    17     -0.453893   2 C  s                40      0.434419   3 C  d  0      
    12     -0.369221   1 C  d  0             59     -0.350371   5 H  px        

 Vector   68  Occ=0.000000D+00  E= 1.634063D+00
              MO Center=  1.9D-01,  5.0D-01,  4.3D-02, r^2= 3.3D+00
   Bfn.  Coefficient  Atom+Function         Bfn.  Coefficient  Atom+Function  
  ----- ------------  ---------------      ----- ------------  ---------------
    23      1.144318   2 C  pz               72     -0.633320   8 H  s         
    37     -0.615084   3 C  pz               16     -0.559163   2 C  s         
    21      0.510942   2 C  px               35      0.472914   3 C  px        
     8     -0.463444   1 C  py               73     -0.462236   8 H  s         
    17      0.430370   2 C  s                81     -0.431137   9 H  pz        

 Vector   69  Occ=0.000000D+00  E= 1.646395D+00
              MO Center= -1.8D-01,  5.5D-01, -1.1D-01, r^2= 3.7D+00
   Bfn.  Coefficient  Atom+Function         Bfn.  Coefficient  Atom+Function  
  ----- ------------  ---------------      ----- ------------  ---------------
    37      1.055914   3 C  pz                9     -0.566756   1 C  pz        
    82      0.544507  10 H  s                 8     -0.426849   1 C  py        
    31     -0.426208   3 C  s                70      0.392819   7 H  py        
    75      0.390564   8 H  py               22     -0.384030   2 C  py        
    21      0.370334   2 C  px               63      0.363668   6 H  s         

 Vector   70  Occ=0.000000D+00  E= 1.658150D+00
              MO Center=  3.6D-01,  4.8D-01,  1.4D-01, r^2= 3.1D+00
   Bfn.  Coefficient  Atom+Function         Bfn.  Coefficient  Atom+Function  
  ----- ------------  ---------------      ----- ------------  ---------------
    23      1.868504   2 C  pz                9     -0.984139   1 C  pz        
    37     -0.837576   3 C  pz               22      0.735302   2 C  py        
    77      0.629215   9 H  s                31      0.526147   3 C  s         
    78      0.496915   9 H  s                 3     -0.468133   1 C  s         
     8      0.453472   1 C  py               74      0.442600   8 H  px        

 Vector   71  Occ=0.000000D+00  E= 1.683411D+00
              MO Center= -3.9D-01,  2.8D-01, -5.4D-02, r^2= 3.4D+00
   Bfn.  Coefficient  Atom+Function         Bfn.  Coefficient  Atom+Function  
  ----- ------------  ---------------      ----- ------------  ---------------
    31      1.596230   3 C  s                22      1.016067   2 C  py        
    45     -0.958976   4 O  s                36     -0.659956   3 C  py        
    16      0.621024   2 C  s                 8      0.611914   1 C  py        
    35      0.515609   3 C  px               17     -0.440540   2 C  s         
    38     -0.432373   3 C  d -2             37     -0.418133   3 C  pz        

 Vector   72  Occ=0.000000D+00  E= 1.738412D+00
              MO Center=  4.3D-02,  2.0D-01, -5.2D-02, r^2= 4.3D+00
   Bfn.  Coefficient  Atom+Function         Bfn.  Coefficient  Atom+Function  
  ----- ------------  ---------------      ----- ------------  ---------------
    31      1.801409   3 C  s                37      1.417685   3 C  pz        
    22      1.209393   2 C  py                3     -0.991062   1 C  s         
    23     -0.980154   2 C  pz               45     -0.900348   4 O  s         
    88     -0.625800  11 H  s                50     -0.475159   4 O  py        
    95      0.456833  12 H  py               80     -0.444719   9 H  py        

 Vector   73  Occ=0.000000D+00  E= 1.780538D+00
              MO Center= -8.8D-02,  2.4D-01, -1.8D-01, r^2= 3.8D+00
   Bfn.  Coefficient  Atom+Function         Bfn.  Coefficient  Atom+Function  
  ----- ------------  ---------------      ----- ------------  ---------------
    45      1.561944   4 O  s                31     -1.427971   3 C  s         
    17      1.399372   2 C  s                23     -0.760449   2 C  pz        
     3     -0.686706   1 C  s                 8      0.607149   1 C  py        
    22      0.580911   2 C  py               37      0.583053   3 C  pz        
    38      0.550551   3 C  d -2             50      0.544992   4 O  py        

 Vector   74  Occ=0.000000D+00  E= 1.794660D+00
              MO Center= -1.0D-01,  4.9D-01, -5.0D-02, r^2= 3.5D+00
   Bfn.  Coefficient  Atom+Function         Bfn.  Coefficient  Atom+Function  
  ----- ------------  ---------------      ----- ------------  ---------------
    17      2.372257   2 C  s                31     -1.481959   3 C  s         
    35     -0.976336   3 C  px               22     -0.785965   2 C  py        
     7     -0.725469   1 C  px               38     -0.655014   3 C  d -2      
    36     -0.648274   3 C  py               45     -0.547015   4 O  s         
    26     -0.488381   2 C  d  0             58      0.484349   5 H  s         

 Vector   75  Occ=0.000000D+00  E= 1.843716D+00
              MO Center= -2.9D-02,  2.1D-01,  2.8D-02, r^2= 4.1D+00
   Bfn.  Coefficient  Atom+Function         Bfn.  Coefficient  Atom+Function  
  ----- ------------  ---------------      ----- ------------  ---------------
    17      1.502766   2 C  s                45      0.855711   4 O  s         
     3     -0.838533   1 C  s                31     -0.735905   3 C  s         
    22      0.702005   2 C  py                8      0.548850   1 C  py        
     7     -0.529808   1 C  px               39     -0.527785   3 C  d -1      
    37      0.523711   3 C  pz               90      0.454610  11 H  py        

 Vector   76  Occ=0.000000D+00  E= 1.932479D+00
              MO Center= -1.3D-01,  4.6D-01, -1.1D-01, r^2= 3.7D+00
   Bfn.  Coefficient  Atom+Function         Bfn.  Coefficient  Atom+Function  
  ----- ------------  ---------------      ----- ------------  ---------------
     3      1.219555   1 C  s                36     -0.943159   3 C  py        
    24      0.882773   2 C  d -2              8     -0.848476   1 C  py        
    31     -0.779598   3 C  s                 7     -0.566522   1 C  px        
    12     -0.510792   1 C  d  0             17     -0.495038   2 C  s         
    19     -0.496176   2 C  py               45     -0.493186   4 O  s         

 Vector   77  Occ=0.000000D+00  E= 1.978677D+00
              MO Center= -3.7D-01, -3.1D-01,  7.3D-03, r^2= 4.0D+00
   Bfn.  Coefficient  Atom+Function         Bfn.  Coefficient  Atom+Function  
  ----- ------------  ---------------      ----- ------------  ---------------
    45      2.356337   4 O  s                36      1.296064   3 C  py        
    31     -1.125910   3 C  s                44     -0.983609   4 O  s         
     8      0.975669   1 C  py               17      0.752509   2 C  s         
     3     -0.718004   1 C  s                50      0.661730   4 O  py        
    90     -0.535267  11 H  py               49     -0.524671   4 O  px        

 Vector   78  Occ=0.000000D+00  E= 2.009932D+00
              MO Center=  1.1D-01,  7.6D-01,  7.3D-02, r^2= 4.2D+00
   Bfn.  Coefficient  Atom+Function         Bfn.  Coefficient  Atom+Function  
  ----- ------------  ---------------      ----- ------------  ---------------
    31      1.241156   3 C  s                45     -1.212164   4 O  s         
     3      1.174699   1 C  s                22     -1.011134   2 C  py        
    17     -0.937734   2 C  s                75      0.514096   8 H  py        
    65     -0.457411   6 H  py               50     -0.454072   4 O  py        
    14     -0.399248   1 C  d  2             40     -0.387587   3 C  d  0      

[...]
           3     0.09843    -0.03235    -0.02461    -0.00487     0.00590    -0.00867
           4     0.02460     0.04655    -0.02791     0.00771    -0.00839     0.00476
           5     0.00075     0.09378    -0.07458    -0.04120     0.09408     0.04082
           6    -0.10623    -0.01936    -0.03670     0.00478    -0.00272    -0.00008
           7    -0.02797     0.00029    -0.01198    -0.02281     0.00881    -0.06260
           8     0.01734     0.03411    -0.02251     0.05589    -0.07312    -0.08123
           9     0.02772     0.06061     0.04041     0.04228    -0.02669     0.04911
          10     0.01090    -0.00987     0.01038     0.00812    -0.00444     0.02764
          11     0.00600     0.00908     0.00069     0.01267    -0.00968     0.02054
          12    -0.00361    -0.01381     0.01314    -0.03793     0.02385    -0.04105
          13     0.02100     0.09197    -0.07747    -0.29403    -0.25844     0.07405
          14    -0.02404    -0.14902     0.11580     0.25369     0.18580    -0.07458
          15    -0.19982     0.04453     0.01361     0.01904    -0.03982     0.05930
          16    -0.16999     0.11918    -0.01884    -0.05243     0.00217     0.08571
          17     0.22442    -0.01904    -0.07096     0.34065     0.31119    -0.06669
          18    -0.07357     0.08623    -0.04968    -0.13428    -0.07157     0.08676
          19     0.19464     0.02865    -0.10265    -0.09757     0.01912     0.05070
          20    -0.15626     0.09251     0.04753     0.32432     0.33099    -0.11649
          21    -0.07176    -0.05247     0.06180     0.13810     0.06485    -0.06783
          22    -0.15261    -0.13654    -0.09970    -0.01590    -0.04955    -0.01758
          23     0.29743    -0.63722    -0.09862     0.11674    -0.22655    -0.11608
          24     0.05161     0.00762     0.00959     0.03663    -0.01841    -0.00068
          25     0.17436     0.06611     0.15177    -0.02425    -0.04448    -0.00349
          26    -0.32411     0.02065     0.62736     0.17094    -0.26536    -0.04232
          27     0.06294     0.01096     0.02837    -0.03346     0.00630     0.00551
          28     0.04376     0.06317     0.12633     0.02013     0.06996     0.14998
          29     0.27148    -0.13916     0.55630    -0.37197     0.36640     0.20784
          30    -0.00557    -0.00051    -0.00529    -0.01341    -0.02911    -0.06261
          31    -0.12221    -0.17823    -0.09384    -0.10299     0.14092    -0.02405
          32    -0.30811    -0.40505    -0.16932     0.07632     0.09269     0.62241
          33    -0.02478    -0.04317    -0.01807    -0.02097     0.05841     0.02798
          34     0.07498     0.05038    -0.00552     0.11945    -0.07349     0.14220
          35    -0.24894    -0.17541    -0.00639    -0.37285     0.24497    -0.44858
          36     0.08099     0.05986    -0.00005     0.10793    -0.06923     0.12260

                   25          26          27          28          29          30
 
 P.Frequency     1413.01     1421.81     1425.94     1440.40     2874.59     2941.49
 
           1     0.01922     0.00011    -0.03171    -0.01950    -0.00084     0.00468
           2    -0.00334     0.00150    -0.01293    -0.00505     0.00092     0.00144
           3    -0.00341     0.04149    -0.00009    -0.00161    -0.00053    -0.00359
           4    -0.05466    -0.00359    -0.03690    -0.04909    -0.00049    -0.06103
           5     0.02488     0.00285    -0.01968    -0.01529    -0.00072     0.00965
           6    -0.00313     0.02513     0.00048    -0.00308    -0.00501     0.03157
           7     0.01225    -0.00574     0.05063    -0.05632     0.04950     0.00571
           8     0.00137    -0.00156     0.00190     0.02930    -0.00352     0.00126
           9     0.00431     0.00291     0.00198    -0.00238     0.05429    -0.00715
          10     0.00454     0.00185     0.00385    -0.00543     0.00082     0.00024
          11    -0.00277     0.00220    -0.00474     0.00228    -0.00187    -0.00058
          12    -0.00306    -0.00592     0.00030    -0.00041    -0.00008     0.00019
          13     0.10414     0.05502    -0.24421    -0.11900    -0.00904    -0.03479
          14    -0.10166    -0.02121     0.20925     0.09755    -0.00435    -0.03128
          15     0.06256    -0.67129    -0.03942    -0.00072    -0.00209    -0.00362
          16    -0.20913    -0.21688     0.36844     0.20329     0.00865    -0.03056
          17     0.05843    -0.45897     0.00226    -0.00346    -0.00112     0.00768
          18    -0.18517    -0.07286     0.30200     0.16859    -0.01171     0.03897
          19    -0.26020     0.15785     0.40993     0.21465     0.00980     0.01037
          20    -0.01318     0.44935     0.04074    -0.00835     0.00169     0.00010
          21     0.17130    -0.01179    -0.26806    -0.14829     0.01616     0.01104
          22     0.45436     0.06562     0.11688     0.26905     0.02998     0.17796
          23    -0.10519    -0.05517     0.02620     0.01900    -0.00682    -0.03574
          24    -0.33711    -0.02332    -0.09150    -0.19989     0.04305     0.30870
          25     0.41416    -0.00141     0.09700     0.24856    -0.02838     0.54798
          26    -0.10652     0.04166     0.03056     0.03072     0.00491    -0.07805
          27     0.37112     0.02431     0.09924     0.22278     0.03095    -0.69223
          28    -0.15820     0.00404    -0.31156     0.39514    -0.50879     0.00193
          29     0.02072    -0.03847     0.05197    -0.12033     0.06341    -0.00232
          30     0.10990    -0.00083     0.23059    -0.29119    -0.79412    -0.00275
          31    -0.16048     0.00082    -0.28505     0.36198    -0.08928    -0.07641
          32     0.05847     0.06365     0.07759    -0.14827     0.01493     0.00699
          33    -0.13220     0.00787    -0.26382     0.33469     0.14293     0.09353
          34     0.01942     0.01522     0.00153    -0.00027     0.00047     0.00280
          35    -0.03993    -0.04903     0.00243    -0.00969    -0.00339    -0.00538
          36     0.01461     0.01390    -0.00197     0.00470    -0.00440    -0.00452

                   31          32          33          34          35          36
 
 P.Frequency     2966.95     2989.44     3006.41     3042.66     3055.10     3645.99
 
           1     0.02979    -0.00199     0.00153     0.00321    -0.07631    -0.00016
           2    -0.04071    -0.00227     0.00072    -0.00132    -0.04276    -0.00014
           3     0.00246    -0.00704     0.02302    -0.08410    -0.00146    -0.00000
           4    -0.00064     0.01906    -0.01348    -0.00244    -0.00555     0.00068
           5     0.00122    -0.00439     0.00325     0.00085     0.00076    -0.00031
           6    -0.00046     0.04352    -0.06559    -0.02442    -0.00149    -0.00034
           7     0.00067     0.03589     0.02179     0.00237    -0.00030    -0.00145
           8     0.00064    -0.00364    -0.00160    -0.00014     0.00044    -0.00127
           9     0.00306    -0.05467    -0.04502    -0.00719     0.00033     0.00256
          10    -0.00013    -0.00050    -0.00027    -0.00007     0.00017    -0.03867
          11    -0.00019    -0.00047    -0.00039    -0.00009    -0.00006     0.00715
          12     0.00000     0.00077     0.00105     0.00035    -0.00012     0.04581
          13     0.33396     0.03011    -0.01674     0.01386     0.57280     0.00216
          14     0.33400     0.03133    -0.01451     0.01399     0.60211     0.00008
          15     0.01627    -0.00034     0.00760    -0.01925     0.02703    -0.00200
          16    -0.36338    -0.03706     0.10376    -0.40366     0.19269     0.00211
          17     0.06812     0.00811    -0.01661     0.08102    -0.05127     0.00030
          18     0.47106     0.04572    -0.12632     0.49772    -0.26948    -0.00125
          19    -0.32539     0.02840    -0.10434     0.35205     0.14889     0.00009
          20     0.06969    -0.00634     0.02122    -0.08040    -0.04692    -0.00013
          21    -0.51756     0.04552    -0.15781     0.52976     0.26052    -0.00022
          22     0.00413    -0.30011     0.36251     0.11583     0.03119     0.00022
          23    -0.00259     0.06001    -0.06942    -0.02436    -0.00643     0.00069
          24     0.00627    -0.45803     0.54747     0.17676     0.04660    -0.00200
          25     0.00068     0.07239    -0.20641    -0.08794     0.02386    -0.00135
          26    -0.00167    -0.01130     0.02732     0.01411    -0.00359     0.00168
          27     0.00129    -0.07671     0.23851     0.10660    -0.02911     0.00195
          28    -0.01509     0.05431     0.07685     0.01877     0.00212     0.00113
          29    -0.00019    -0.00273    -0.00619     0.00101     0.00129    -0.00367
          30    -0.02286     0.06294     0.10724     0.02635     0.00258     0.00137
          31     0.01079    -0.47584    -0.33253    -0.04624     0.00562     0.00661
          32    -0.00301     0.04710     0.03034     0.00130     0.00096     0.00394
          33    -0.01514     0.59546     0.41656     0.05674    -0.00636    -0.01103
          34     0.00122     0.00520     0.00390     0.00097    -0.00150     0.61379
          35     0.00117     0.00393     0.00579     0.00208    -0.00046    -0.09582
          36     0.00052    -0.01001    -0.00704    -0.00247     0.00129    -0.74034



 ----------------------------------------------------------------------------
 Normal Eigenvalue ||    Projected Derivative Dipole Moments (debye/angs)
  Mode   [cm**-1]  ||      [d/dqX]             [d/dqY]           [d/dqZ]
 ------ ---------- || ------------------ ------------------ -----------------
    1       -0.000 ||       0.063              -0.028             0.003
    2       -0.000 ||      -0.047              -0.001            -0.022
    3       -0.000 ||      -0.008              -0.070            -0.072
    4        0.000 ||       0.052              -0.048            -0.024
    5        0.000 ||      -0.045               0.024             0.002
    6        0.000 ||       0.217               0.009             0.103
    7      138.493 ||       0.148              -0.138            -0.044
    8      227.714 ||      -0.196              -0.161            -0.191
    9      253.251 ||       0.091               0.285             0.227
   10      329.659 ||       0.976               0.771             0.851
   11      451.279 ||       0.352               0.266             0.165
   12      744.272 ||       0.097               0.027             0.302
   13      855.936 ||      -0.213               0.204             0.141
   14      867.177 ||      -0.427               0.001            -0.091
   15     1025.999 ||       0.246              -0.845             0.100
   16     1049.312 ||      -0.373               1.194            -0.095
   17     1073.938 ||       0.146              -0.688             0.023
   18     1106.454 ||      -0.058              -0.019            -0.053
   19     1197.559 ||       0.109              -0.301             0.046
   20     1257.257 ||       0.081              -0.029             0.039
   21     1273.063 ||       0.059              -0.361            -0.044
   22     1339.092 ||       0.035              -0.188             0.012
   23     1348.743 ||      -0.080               0.127            -0.015
   24     1373.389 ||       0.286              -1.029             0.052
   25     1413.013 ||       0.015              -0.131             0.011
   26     1421.807 ||       0.024              -0.078            -0.398
   27     1425.936 ||       0.218               0.145            -0.017
   28     1440.398 ||       0.148               0.176            -0.001
   29     2874.585 ||       1.060              -0.220             0.793
   30     2941.488 ||      -0.736               0.276             0.276
   31     2966.947 ||       0.425              -0.685             0.068
   32     2989.442 ||       0.643              -0.117            -0.218
   33     3006.407 ||       0.125               0.003            -0.866
   34     3042.663 ||       0.029              -0.020            -1.028
   35     3055.103 ||      -0.677              -0.382            -0.025
   36     3645.987 ||      -0.279               0.239             0.297
 ----------------------------------------------------------------------------



  
  
 ----------------------------------------------------------------------------
 Normal Eigenvalue ||           Projected Infra Red Intensities
  Mode   [cm**-1]  || [atomic units] [(debye/angs)**2] [(KM/mol)] [arbitrary]
 ------ ---------- || -------------- ----------------- ---------- -----------
    1       -0.000 ||    0.000204           0.005         0.199       0.120
    2       -0.000 ||    0.000118           0.003         0.116       0.070
    3       -0.000 ||    0.000441           0.010         0.430       0.259
    4        0.000 ||    0.000240           0.006         0.234       0.141
    5        0.000 ||    0.000115           0.003         0.112       0.068
    6        0.000 ||    0.002507           0.058         2.444       1.471
    7      138.493 ||    0.001861           0.043         1.814       1.092
    8      227.714 ||    0.004373           0.101         4.263       2.566
    9      253.251 ||    0.006122           0.141         5.968       3.593
   10      329.659 ||    0.098416           2.271        95.941      57.756
   11      451.279 ||    0.009610           0.222         9.368       5.640
   12      744.272 ||    0.004395           0.101         4.284       2.579
   13      855.936 ||    0.004617           0.107         4.501       2.710
   14      867.177 ||    0.008266           0.191         8.058       4.851
   15     1025.999 ||    0.033978           0.784        33.124      19.940
   16     1049.312 ||    0.068207           1.574        66.492      40.028
   17     1073.938 ||    0.021493           0.496        20.952      12.613
   18     1106.454 ||    0.000282           0.007         0.275       0.165
   19     1197.559 ||    0.004533           0.105         4.419       2.660
   20     1257.257 ||    0.000388           0.009         0.379       0.228
   21     1273.063 ||    0.005897           0.136         5.749       3.461
   22     1339.092 ||    0.001592           0.037         1.552       0.934
   23     1348.743 ||    0.000985           0.023         0.960       0.578
   24     1373.389 ||    0.049574           1.144        48.327      29.093
   25     1413.013 ||    0.000764           0.018         0.744       0.448
   26     1421.807 ||    0.007151           0.165         6.971       4.196
   27     1425.936 ||    0.002991           0.069         2.916       1.756
   28     1440.398 ||    0.002293           0.053         2.235       1.346
   29     2874.585 ||    0.078118           1.802        76.153      45.844
   30     2941.488 ||    0.030107           0.695        29.350      17.669
   31     2966.947 ||    0.028338           0.654        27.625      16.630
   32     2989.442 ||    0.020551           0.474        20.035      12.061
   33     3006.407 ||    0.033173           0.765        32.339      19.468
   34     3042.663 ||    0.045886           1.059        44.732      26.929
   35     3055.103 ||    0.026181           0.604        25.523      15.365
   36     3645.987 ||    0.009665           0.223         9.422       5.672
 ----------------------------------------------------------------------------



 vib:animation  F

 Task  times  cpu:        0.0s     wall:        0.0s


                                NWChem Input Module
                                -------------------


 Summary of allocated global arrays
-----------------------------------
  No active global arrays


MA_summarize_allocated_blocks: starting scan ...
MA_summarize_allocated_blocks: scan completed: 0 heap blocks, 0 stack blocks
MA usage statistics:

	allocation statistics:
					      heap	     stack
					      ----	     -----
	current number of blocks	         0	         0
	maximum number of blocks	        24	        54
	current total bytes		         0	         0
	maximum total bytes		   1953152	 279511048
	maximum total K-bytes		      1954	    279512
	maximum total M-bytes		         2	       280


                                     CITATION
                                     --------
                Please cite the following reference when publishing
                           results obtained with NWChem:

          E. Apra, E. J. Bylaska, W. A. de Jong, N. Govind, K. Kowalski,
       T. P. Straatsma, M. Valiev, H. J. J. van Dam, Y. Alexeev, J. Anchell,
       V. Anisimov, F. W. Aquino, R. Atta-Fynn, J. Autschbach, N. P. Bauman,
     J. C. Becca, D. E. Bernholdt, K. Bhaskaran-Nair, S. Bogatko, P. Borowski,
         J. Boschen, J. Brabec, A. Bruner, E. Cauet, Y. Chen, G. N. Chuev,
      C. J. Cramer, J. Daily, M. J. O. Deegan, T. H. Dunning Jr., M. Dupuis,
   K. G. Dyall, G. I. Fann, S. A. Fischer, A. Fonari, H. Fruchtl, L. Gagliardi,
      J. Garza, N. Gawande, S. Ghosh, K. Glaesemann, A. W. Gotz, J. Hammond,
       V. Helms, E. D. Hermes, K. Hirao, S. Hirata, M. Jacquelin, L. Jensen,
   B. G. Johnson, H. Jonsson, R. A. Kendall, M. Klemm, R. Kobayashi, V. Konkov,
      S. Krishnamoorthy, M. Krishnan, Z. Lin, R. D. Lins, R. J. Littlefield,
      A. J. Logsdail, K. Lopata, W. Ma, A. V. Marenich, J. Martin del Campo,
   D. Mejia-Rodriguez, J. E. Moore, J. M. Mullin, T. Nakajima, D. R. Nascimento,
    J. A. Nichols, P. J. Nichols, J. Nieplocha, A. Otero-de-la-Roza, B. Palmer,
    A. Panyala, T. Pirojsirikul, B. Peng, R. Peverati, J. Pittner, L. Pollack,
   R. M. Richard, P. Sadayappan, G. C. Schatz, W. A. Shelton, D. W. Silverstein,
   D. M. A. Smith, T. A. Soares, D. Song, M. Swart, H. L. Taylor, G. S. Thomas,
            V. Tipparaju, D. G. Truhlar, K. Tsemekhman, T. Van Voorhis,
      A. Vazquez-Mayagoitia, P. Verma, O. Villa, A. Vishnu, K. D. Vogiatzis,
        D. Wang, J. H. Weare, M. J. Williamson, T. L. Windus, K. Wolinski,
        A. T. Wong, Q. Wu, C. Yang, Q. Yu, M. Zacharias, Z. Zhang, Y. Zhao,
                                and R. J. Harrison
                        "NWChem: Past, present, and future
                         J. Chem. Phys. 152, 184102 (2020)
                               doi:10.1063/5.0004997

                                      AUTHORS
                                      -------
  E. Apra, E. J. Bylaska, N. Govind, K. Kowalski, M. Valiev, D. Mejia-Rodriguez,
       A. Kunitsa, N. P. Bauman, A. Panyala, W. A. de Jong, T. P. Straatsma,
        H. J. J. van Dam, D. Wang, T. L. Windus, J. Hammond, J. Autschbach,
    K. Bhaskaran-Nair, J. Brabec, K. Lopata, S. A. Fischer, S. Krishnamoorthy,
     M. Jacquelin, W. Ma, M. Klemm, O. Villa, Y. Chen, V. Anisimov, F. Aquino,
    S. Hirata, M. T. Hackler, Eric Hermes, L. Jensen, J. E. Moore, J. C. Becca,
      V. Konjkov, T. Risthaus, M. Malagoli, A. Marenich, A. Otero-de-la-Roza,
        J. Mullin, P. Nichols, R. Peverati, J. Pittner, Y. Zhao, P.-D. Fan,
        A. Fonari, M. J. Williamson, R. J. Harrison, J. R. Rehr, M. Dupuis,
     D. Silverstein, D. M. A. Smith, J. Nieplocha, V. Tipparaju, M. Krishnan,
     B. E. Van Kuiken, A. Vazquez-Mayagoitia, M. Swart, Q. Wu, T. Van Voorhis,
     A. A. Auer, M. Nooijen, L. D. Crosby, E. Brown, G. Cisneros, G. I. Fann,
   H. Fruchtl, J. Garza, K. Hirao, R. A. Kendall, J. A. Nichols, K. Tsemekhman,
    K. Wolinski, J. Anchell, D. E. Bernholdt, P. Borowski, T. Clark, D. Clerc,
   H. Dachsel, M. J. O. Deegan, K. Dyall, D. Elwood, E. Glendening, M. Gutowski,
   A. C. Hess, J. Jaffe, B. G. Johnson, J. Ju, R. Kobayashi, R. Kutteh, Z. Lin,
   R. Littlefield, X. Long, B. Meng, T. Nakajima, S. Niu, L. Pollack, M. Rosing,
   K. Glaesemann, G. Sandrone, M. Stave, H. Taylor, G. Thomas, J. H. van Lenthe,
                               A. T. Wong, Z. Zhang.

 Total times  cpu:     3532.0s     wall:     3859.4s
