 argument  1 = /home/hvandam/nwchem-1-srp-hpc/QA/tests/ZSM-5/nwc/1-propyl+dft-pbe-thermo.nw



============================== echo of input deck ==============================
echo
start 1-propyl-dat

memory heap 100 mb stack 500 mb global 1024 mb

geometry
  #load ../xyz/1-propyl+.xyz
  load 1-propyl+.xyz
end

charge +1

basis "cc-pvdz" spherical
  * library cc-pvdz
end
basis "cc-pvtz" spherical
  * library cc-pvtz
end
basis "cc-pvqz" spherical
  * library cc-pvqz
end
basis "cc-pv5z" spherical
  * library cc-pv5z
end
basis "cc-pv6z" spherical
  * library cc-pv6z
end

dft
  direct
  # select PBE functional following https://doi.org/10.1002/aic.15517
  xc xpbe96 cpbe96
  convergence energy 1e-8 density 1e-7 gradient 1e-6
end

set int:txs:limxmem              50000000

set "ao basis" "cc-pvdz"
task dft optimize
task dft frequencies numerical
vib
  reuse
  temp 9 198.15 298.15 398.15 498.15 598.15 698.15 798.15 898.15 998.15
end
task dft frequencies numerical

set "ao basis" "cc-pvtz"
task dft optimize
task dft frequencies numerical
vib
  reuse
  temp 9 198.15 298.15 398.15 498.15 598.15 698.15 798.15 898.15 998.15
end
task dft frequencies numerical

set "ao basis" "cc-pvqz"
task dft optimize
task dft frequencies numerical
vib
  reuse
  temp 9 198.15 298.15 398.15 498.15 598.15 698.15 798.15 898.15 998.15
end
task dft frequencies numerical

#set "ao basis" "cc-pv5z"
#task dft optimize

#set "ao basis" "cc-pv6z"
#task dft optimize
================================================================================


                                         
                                         


             Northwest Computational Chemistry Package (NWChem) 7.0.1
             --------------------------------------------------------


                    Environmental Molecular Sciences Laboratory
                       Pacific Northwest National Laboratory
                                Richland, WA 99352

                              Copyright (c) 1994-2020
                       Pacific Northwest National Laboratory
                            Battelle Memorial Institute

             NWChem is an open-source computational chemistry package
                        distributed under the terms of the
                      Educational Community License (ECL) 2.0
             A copy of the license is included with this distribution
                              in the LICENSE.TXT file

                                  ACKNOWLEDGMENT
                                  --------------

            This software and its documentation were developed at the
            EMSL at Pacific Northwest National Laboratory, a multiprogram
            national laboratory, operated for the U.S. Department of Energy
            by Battelle under Contract Number DE-AC05-76RL01830. Support
            for this work was provided by the Department of Energy Office
            of Biological and Environmental Research, Office of Basic
            Energy Sciences, and the Office of Advanced Scientific Computing.


           Job information
           ---------------

    hostname        = node004
    program         = /home/hvandam/nwchem-1-srp-hpc/bin/LINUX64/nwchem
    date            = Thu Mar  9 15:31:05 2023

    compiled        = Tue_Mar_07_06:00:48_2023
    source          = /home/hvandam/nwchem-1-srp-hpc
    nwchem branch   = 7.0.0
    nwchem revision = nwchem_on_git-4102-gb5ef8e9
    ga revision     = 5.8.1
    use scalapack   = F
    input           = /home/hvandam/nwchem-1-srp-hpc/QA/tests/ZSM-5/nwc/1-propyl+dft-pbe-thermo.nw
    prefix          = 1-propyl-dat.
    data base       = ./1-propyl-dat.db
    status          = startup
    nproc           =       16
    time left       =     -1s



           Memory information
           ------------------

    heap     =   13107196 doubles =    100.0 Mbytes
    stack    =   65536001 doubles =    500.0 Mbytes
    global   =  134217728 doubles =   1024.0 Mbytes (distinct from heap & stack)
    total    =  212860925 doubles =   1624.0 Mbytes
    verify   = yes
    hardfail = no 


           Directory information
           ---------------------

  0 permanent = .
  0 scratch   = .




                                NWChem Input Module
                                -------------------



 Scaling coordinates for geometry "geometry" by  1.889725989
 (inverse scale =  0.529177249)

 C1  symmetry detected

          ------
          auto-z
          ------
  no constraints, skipping    0.0000000000000000     
  no constraints, skipping    0.0000000000000000     


                             Geometry "geometry" -> ""
                             -------------------------

 Output coordinates in angstroms (scale by  1.889725989 to convert to a.u.)

  No.       Tag          Charge          X              Y              Z
 ---- ---------------- ---------- -------------- -------------- --------------
    1 C                    6.0000    -0.27510140     1.16582395     0.00013641
    2 C                    6.0000     0.60602580    -0.07030440    -0.00068958
    3 C                    6.0000    -0.21849286    -1.34952175    -0.00071200
    4 H                    1.0000     0.34010097     2.07092441     0.00070251
    5 H                    1.0000    -0.91615989     1.19003428     0.88713895
    6 H                    1.0000    -0.91557468     1.19098438    -0.88748232
    7 H                    1.0000     1.26631028    -0.05878758     0.87451875
    8 H                    1.0000     1.26565341    -0.05534112    -0.87658091
    9 H                    1.0000    -0.86502774    -1.40809770    -0.88229840
   10 H                    1.0000    -0.84989163    -1.40570347     0.89159243

      Atomic Mass 
      ----------- 

      C                 12.000000
      H                  1.007825


 Effective nuclear repulsion energy (a.u.)      76.1159597983

            Nuclear Dipole moment (a.u.) 
            ----------------------------
        X                 Y               Z
 ---------------- ---------------- ----------------
    -0.0000000000     0.0000000000     0.0000000000



                                Z-matrix (autoz)
                                -------- 

 Units are Angstrom for bonds and degrees for angles

      Type          Name      I     J     K     L     M      Value
      ----------- --------  ----- ----- ----- ----- ----- ----------
    1 Stretch                  1     2                       1.51802
    2 Stretch                  1     4                       1.09439
    3 Stretch                  1     5                       1.09468
    4 Stretch                  1     6                       1.09485
    5 Stretch                  2     3                       1.52192
    6 Stretch                  2     7                       1.09640
    7 Stretch                  2     8                       1.09659
    8 Stretch                  3     9                       1.09482
    9 Stretch                  3    10                       1.09454
   10 Bend                     1     2     3               111.71449
   11 Bend                     1     2     7               109.91169
   12 Bend                     1     2     8               109.78392
   13 Bend                     2     1     4               110.31409
   14 Bend                     2     1     5               110.99991
   15 Bend                     2     1     6               110.96653
   16 Bend                     2     3     9               111.40237
   17 Bend                     2     3    10               110.83348
   18 Bend                     3     2     7               109.57900
   19 Bend                     3     2     8               109.71498
   20 Bend                     4     1     5               108.08873
   21 Bend                     4     1     6               108.07485
   22 Bend                     5     1     6               108.29027
   23 Bend                     7     2     8               105.97384
   24 Bend                     9     3    10               108.24283
   25 Torsion                  1     2     3     9          59.90094
   26 Torsion                  1     2     3    10         -60.68964
   27 Torsion                  3     2     1     4         179.96843
   28 Torsion                  3     2     1     5          60.18399
   29 Torsion                  3     2     1     6         -60.28604
   30 Torsion                  4     1     2     7          58.10546
   31 Torsion                  4     1     2     8         -58.08462
   32 Torsion                  5     1     2     7         -61.67899
   33 Torsion                  5     1     2     8        -177.86907
   34 Torsion                  6     1     2     7         177.85099
   35 Torsion                  6     1     2     8          61.66091
   36 Torsion                  7     2     3     9        -178.04467
   37 Torsion                  7     2     3    10          61.36475
   38 Torsion                  8     2     3     9         -62.08568
   39 Torsion                  8     2     3    10         177.32374


            XYZ format geometry
            -------------------
    10
 geometry
 C                    -0.27510140     1.16582395     0.00013641
 C                     0.60602580    -0.07030440    -0.00068958
 C                    -0.21849286    -1.34952175    -0.00071200
 H                     0.34010097     2.07092441     0.00070251
 H                    -0.91615989     1.19003428     0.88713895
 H                    -0.91557468     1.19098438    -0.88748232
 H                     1.26631028    -0.05878758     0.87451875
 H                     1.26565341    -0.05534112    -0.87658091
 H                    -0.86502774    -1.40809770    -0.88229840
 H                    -0.84989163    -1.40570347     0.89159243

 ==============================================================================
                                internuclear distances
 ------------------------------------------------------------------------------
       center one      |      center two      | atomic units |  angstroms
 ------------------------------------------------------------------------------
    2 C                |   1 C                |     2.86865  |     1.51802
    3 C                |   2 C                |     2.87600  |     1.52192
    4 H                |   1 C                |     2.06809  |     1.09439
    5 H                |   1 C                |     2.06864  |     1.09468
    6 H                |   1 C                |     2.06897  |     1.09485
    7 H                |   2 C                |     2.07190  |     1.09640
    8 H                |   2 C                |     2.07226  |     1.09659
    9 H                |   3 C                |     2.06891  |     1.09482
   10 H                |   3 C                |     2.06839  |     1.09454
 ------------------------------------------------------------------------------
                         number of included internuclear distances:          9
 ==============================================================================



 ==============================================================================
                                 internuclear angles
 ------------------------------------------------------------------------------
        center 1       |       center 2       |       center 3       |  degrees
 ------------------------------------------------------------------------------
    2 C                |   1 C                |   4 H                |   110.31
    2 C                |   1 C                |   5 H                |   111.00
    2 C                |   1 C                |   6 H                |   110.97
    4 H                |   1 C                |   5 H                |   108.09
    4 H                |   1 C                |   6 H                |   108.07
    5 H                |   1 C                |   6 H                |   108.29
    1 C                |   2 C                |   3 C                |   111.71
    1 C                |   2 C                |   7 H                |   109.91
    1 C                |   2 C                |   8 H                |   109.78
    3 C                |   2 C                |   7 H                |   109.58
    3 C                |   2 C                |   8 H                |   109.71
    7 H                |   2 C                |   8 H                |   105.97
    2 C                |   3 C                |   9 H                |   111.40
    2 C                |   3 C                |  10 H                |   110.83
    9 H                |   3 C                |  10 H                |   108.24
 ------------------------------------------------------------------------------
                            number of included internuclear angles:         15
 ==============================================================================





 Summary of "cc-pvdz" -> "" (spherical)
 ------------------------------------------------------------------------------
       Tag                 Description            Shells   Functions and Types
 ---------------- ------------------------------  ------  ---------------------
 *                          cc-pvdz                   on all atoms 




 Summary of "cc-pvtz" -> "" (spherical)
 ------------------------------------------------------------------------------
       Tag                 Description            Shells   Functions and Types
 ---------------- ------------------------------  ------  ---------------------
 *                          cc-pvtz                   on all atoms 




 Summary of "cc-pvqz" -> "" (spherical)
 ------------------------------------------------------------------------------
       Tag                 Description            Shells   Functions and Types
 ---------------- ------------------------------  ------  ---------------------
 *                          cc-pvqz                   on all atoms 




 Summary of "cc-pv5z" -> "" (spherical)
 ------------------------------------------------------------------------------
       Tag                 Description            Shells   Functions and Types
 ---------------- ------------------------------  ------  ---------------------
 *                          cc-pv5z                   on all atoms 




 Summary of "cc-pv6z" -> "" (spherical)
 ------------------------------------------------------------------------------
       Tag                 Description            Shells   Functions and Types
 ---------------- ------------------------------  ------  ---------------------
 *                          cc-pv6z                   on all atoms 


  pbe96 is a nonlocal functional; adding pw91lda local functional. 


                           NWChem Geometry Optimization
                           ----------------------------


  no constraints, skipping    0.0000000000000000     
 maximum gradient threshold         (gmax) =   0.000450
 rms gradient threshold             (grms) =   0.000300
 maximum cartesian step threshold   (xmax) =   0.001800
 rms cartesian step threshold       (xrms) =   0.001200
 fixed trust radius                (trust) =   0.300000
 maximum step size to saddle      (sadstp) =   0.100000
 energy precision                  (eprec) =   5.0D-06
 maximum number of steps          (nptopt) =   40
 initial hessian option           (inhess) =    0
 line search option               (linopt) =    1
 hessian update option            (modupd) =    1
 saddle point option              (modsad) =    0
 initial eigen-mode to follow     (moddir) =    0
 initial variable to follow       (vardir) =    0
 follow first negative mode     (firstneg) =    T
 apply conjugacy                    (opcg) =    F
 source of zmatrix                         =   autoz   


          -------------------
          Energy Minimization
          -------------------


 Names of Z-matrix variables 
    1              2              3              4              5         
    6              7              8              9             10         
   11             12             13             14             15         
   16             17             18             19             20         
   21             22             23             24             25         
   26             27             28             29             30         
   31             32             33             34             35         
   36             37             38             39         

 Variables with the same non-blank name are constrained to be equal


 Using diagonal initial Hessian 
 Scaling for Hessian diagonals: bonds = 1.00  angles = 0.25  torsions = 0.10

          --------
          Step   0
          --------


                         Geometry "geometry" -> "geometry"
                         ---------------------------------

 Output coordinates in angstroms (scale by  1.889725989 to convert to a.u.)

  No.       Tag          Charge          X              Y              Z
 ---- ---------------- ---------- -------------- -------------- --------------
    1 C                    6.0000    -0.27510140     1.16582395     0.00013641
    2 C                    6.0000     0.60602580    -0.07030440    -0.00068958
    3 C                    6.0000    -0.21849286    -1.34952175    -0.00071200
    4 H                    1.0000     0.34010097     2.07092441     0.00070251
    5 H                    1.0000    -0.91615989     1.19003428     0.88713895
    6 H                    1.0000    -0.91557468     1.19098438    -0.88748232
    7 H                    1.0000     1.26631028    -0.05878758     0.87451875
    8 H                    1.0000     1.26565341    -0.05534112    -0.87658091
    9 H                    1.0000    -0.86502774    -1.40809770    -0.88229840
   10 H                    1.0000    -0.84989163    -1.40570347     0.89159243

      Atomic Mass 
      ----------- 

      C                 12.000000
      H                  1.007825


 Effective nuclear repulsion energy (a.u.)      76.1159597983

            Nuclear Dipole moment (a.u.) 
            ----------------------------
        X                 Y               Z
 ---------------- ---------------- ----------------
    -0.0000000000     0.0000000000     0.0000000000


                                 NWChem DFT Module
                                 -----------------


                      Basis "ao basis" -> "cc-pvdz" (spherical)
                      -----
  C (Carbon)
  ----------
            Exponent  Coefficients 
       -------------- ---------------------------------------------------------
  1 S  6.66500000E+03  0.000692
  1 S  1.00000000E+03  0.005329
  1 S  2.28000000E+02  0.027077
  1 S  6.47100000E+01  0.101718
  1 S  2.10600000E+01  0.274740
  1 S  7.49500000E+00  0.448564
  1 S  2.79700000E+00  0.285074
  1 S  5.21500000E-01  0.015204

  2 S  6.66500000E+03 -0.000146
  2 S  1.00000000E+03 -0.001154
  2 S  2.28000000E+02 -0.005725
  2 S  6.47100000E+01 -0.023312
  2 S  2.10600000E+01 -0.063955
  2 S  7.49500000E+00 -0.149981
  2 S  2.79700000E+00 -0.127262
  2 S  5.21500000E-01  0.544529

  3 S  1.59600000E-01  1.000000

  4 P  9.43900000E+00  0.038109
  4 P  2.00200000E+00  0.209480
  4 P  5.45600000E-01  0.508557

  5 P  1.51700000E-01  1.000000

  6 D  5.50000000E-01  1.000000

  H (Hydrogen)
  ------------
            Exponent  Coefficients 
       -------------- ---------------------------------------------------------
  1 S  1.30100000E+01  0.019685
  1 S  1.96200000E+00  0.137977
  1 S  4.44600000E-01  0.478148

  2 S  1.22000000E-01  1.000000

  3 P  7.27000000E-01  1.000000



 Summary of "ao basis" -> "cc-pvdz" (spherical)
 ------------------------------------------------------------------------------
       Tag                 Description            Shells   Functions and Types
 ---------------- ------------------------------  ------  ---------------------
 C                          cc-pvdz                  6       14   3s2p1d
 H                          cc-pvdz                  3        5   2s1p




 Summary of "ao basis" -> "cc-pvdz" (spherical)
 ------------------------------------------------------------------------------
       Tag                 Description            Shells   Functions and Types
 ---------------- ------------------------------  ------  ---------------------
 C                          cc-pvdz                  6       14   3s2p1d
 H                          cc-pvdz                  3        5   2s1p


  texas integral default override: limxmem =             50000000
  Caching 1-el integrals 
  itol2e modified to match energy
  convergence criterion.
  tol_rho modified to match energy
  convergence criterion.

            General Information
            -------------------
          SCF calculation type: DFT
          Wavefunction type:  closed shell.
          No. of atoms     :    10
          No. of electrons :    24
           Alpha electrons :    12
            Beta electrons :    12
          Charge           :     1
          Spin multiplicity:     1
          Use of symmetry is: off; symmetry adaption is: off
          Maximum number of iterations:  50
          This is a Direct SCF calculation.
          AO basis - number of functions:    77
                     number of shells:    39
          Convergence on energy requested:  1.00D-08
          Convergence on density requested:  1.00D-07
          Convergence on gradient requested:  1.00D-06

              XC Information
              --------------
          PerdewBurkeErnzerhof Exchange Functional  1.000          
            Perdew 1991 LDA Correlation Functional  1.000 local    
           PerdewBurkeErnz. Correlation Functional  1.000 non-local

             Grid Information
             ----------------
          Grid used for XC integration:  medium    
          Radial quadrature: Mura-Knowles        
          Angular quadrature: Lebedev. 
          Tag              B.-S. Rad. Rad. Pts. Rad. Cut. Ang. Pts.
          ---              ---------- --------- --------- ---------
          C                   0.70       49          10.0       434
          H                   0.35       45          10.0       434
          Grid pruning is: on 
          Number of quadrature shells:   462
          Spatial weights used:  Erf1

          Convergence Information
          -----------------------
          Convergence aids based upon iterative change in 
          total energy or number of iterations. 
          Levelshifting, if invoked, occurs when the 
          HOMO/LUMO gap drops below (HL_TOL):  1.00D-02
          DIIS, if invoked, will attempt to extrapolate 
          using up to (NFOCK): 10 stored Fock matrices.

                    Damping( 0%)  Levelshifting(0.5)       DIIS
                  --------------- ------------------- ---------------
          dE  on:    start            ASAP                start   
          dE off:    2 iters         50 iters            50 iters 


      Screening Tolerance Information
      -------------------------------
          Density screening/tol_rho:  1.00D-11
          AO Gaussian exp screening on grid/accAOfunc:  18
          CD Gaussian exp screening on grid/accCDfunc:  20
          XC Gaussian exp screening on grid/accXCfunc:  20
          Schwarz screening/accCoul:  1.00D-09


      Superposition of Atomic Density Guess
      -------------------------------------

 Sum of atomic energies:        -116.49339134

 Renormalizing density from      25.00 to     24

      Non-variational initial energy
      ------------------------------

 Total energy =    -114.855177
 1-e energy   =    -292.628943
 2-e energy   =     101.657807
 HOMO         =      -0.700260
 LUMO         =      -0.501976

   Time after variat. SCF:      0.8
   Time prior to 1st pass:      0.8

 Grid_pts file          = ./1-propyl-dat.gridpts.00
 Record size in doubles =  12289        No. of grid_pts per rec  =   3070
 Max. records in memory =      6        Max. recs in file   =    106938


           Memory utilization after 1st SCF pass: 
           Heap Space remaining (MW):       13.03            13029204
          Stack Space remaining (MW):       65.54            65535324

   convergence    iter        energy       DeltaE   RMS-Dens  Diis-err    time
 ---------------- ----- ----------------- --------- --------- ---------  ------
 d= 0,ls=0.0,diis     1   -117.8456495739 -1.94D+02  2.31D-02  8.82D-01     1.4
 d= 0,ls=0.0,diis     2   -116.7853530780  1.06D+00  2.09D-02  6.66D+00     1.9
 d= 0,ls=0.0,diis     3   -117.9121397010 -1.13D+00  5.00D-03  2.07D-01     2.4
 d= 0,ls=0.0,diis     4   -117.9445466704 -3.24D-02  1.69D-03  3.34D-02     2.9
 d= 0,ls=0.0,diis     5   -117.9491237728 -4.58D-03  4.65D-04  1.83D-03     3.5
  Resetting Diis
 d= 0,ls=0.0,diis     6   -117.9492963350 -1.73D-04  1.77D-04  5.65D-04     4.1
 d= 0,ls=0.0,diis     7   -117.9493763089 -8.00D-05  8.89D-05  8.21D-06     4.7
 d= 0,ls=0.0,diis     8   -117.9493673160  8.99D-06  6.46D-05  6.30D-05     5.2
 d= 0,ls=0.0,diis     9   -117.9493776871 -1.04D-05  7.18D-06  8.21D-07     5.8
 d= 0,ls=0.0,diis    10   -117.9493777944 -1.07D-07  1.41D-06  2.94D-08     6.4
 d= 0,ls=0.0,diis    11   -117.9493777986 -4.24D-09  1.60D-07  2.40D-10     7.0
 d= 0,ls=0.0,diis    12   -117.9493777987 -3.29D-11  4.90D-08  3.03D-11     7.6


         Total DFT energy =     -117.949377798671
      One electron energy =     -301.527685816596
           Coulomb energy =      125.790368561841
    Exchange-Corr. energy =      -18.328020342264
 Nuclear repulsion energy =       76.115959798347

 Numeric. integr. density =       23.999999436981

     Total iterative time =      6.8s



                       DFT Final Molecular Orbital Analysis
                       ------------------------------------

 Vector    1  Occ=2.000000D+00  E=-1.026529D+01
              MO Center= -2.2D-01, -1.3D+00, -7.1D-04, r^2= 2.8D-02
   Bfn.  Coefficient  Atom+Function         Bfn.  Coefficient  Atom+Function  
  ----- ------------  ---------------      ----- ------------  ---------------
    29      1.007192   3 C  s         

 Vector    2  Occ=2.000000D+00  E=-1.015840D+01
              MO Center=  6.1D-01, -7.0D-02, -6.9D-04, r^2= 2.8D-02
   Bfn.  Coefficient  Atom+Function         Bfn.  Coefficient  Atom+Function  
  ----- ------------  ---------------      ----- ------------  ---------------
    15      1.008166   2 C  s                17     -0.025794   2 C  s         

 Vector    3  Occ=2.000000D+00  E=-1.013290D+01
              MO Center= -2.8D-01,  1.2D+00,  1.4D-04, r^2= 2.8D-02
   Bfn.  Coefficient  Atom+Function         Bfn.  Coefficient  Atom+Function  
  ----- ------------  ---------------      ----- ------------  ---------------
     1      1.007868   1 C  s         

 Vector    4  Occ=2.000000D+00  E=-9.814889D-01
              MO Center=  7.5D-02, -3.3D-01,  6.5D-04, r^2= 1.5D+00
   Bfn.  Coefficient  Atom+Function         Bfn.  Coefficient  Atom+Function  
  ----- ------------  ---------------      ----- ------------  ---------------
    16      0.277963   2 C  s                30      0.272279   3 C  s         
    17      0.189266   2 C  s                31      0.177700   3 C  s         
     2      0.166452   1 C  s                68      0.104621   9 H  s         
    73      0.105119  10 H  s                58      0.092654   7 H  s         
    63      0.092546   8 H  s                 3      0.088297   1 C  s         

 Vector    5  Occ=2.000000D+00  E=-8.688688D-01
              MO Center= -2.4D-01, -9.6D-03,  6.9D-04, r^2= 2.5D+00
   Bfn.  Coefficient  Atom+Function         Bfn.  Coefficient  Atom+Function  
  ----- ------------  ---------------      ----- ------------  ---------------
    30     -0.299998   3 C  s                 2      0.286808   1 C  s         
    31     -0.214061   3 C  s                 3      0.174162   1 C  s         
    19      0.163207   2 C  py               68     -0.152166   9 H  s         
    73     -0.152351  10 H  s                43      0.131277   4 H  s         
    48      0.115509   5 H  s                53      0.115541   6 H  s         

 Vector    6  Occ=2.000000D+00  E=-7.739487D-01
              MO Center=  1.1D-01,  1.6D-02, -8.0D-04, r^2= 2.6D+00
   Bfn.  Coefficient  Atom+Function         Bfn.  Coefficient  Atom+Function  
  ----- ------------  ---------------      ----- ------------  ---------------
    16      0.265976   2 C  s                 2     -0.208732   1 C  s         
    32      0.181445   3 C  px               58      0.172205   7 H  s         
    63      0.172221   8 H  s                17      0.159076   2 C  s         
    68     -0.134497   9 H  s                73     -0.132936  10 H  s         
    48     -0.130958   5 H  s                53     -0.130829   6 H  s         

 Vector    7  Occ=2.000000D+00  E=-6.752940D-01
              MO Center= -9.3D-02, -7.7D-01, -8.2D-04, r^2= 2.0D+00
   Bfn.  Coefficient  Atom+Function         Bfn.  Coefficient  Atom+Function  
  ----- ------------  ---------------      ----- ------------  ---------------
    34      0.388238   3 C  pz               20      0.256811   2 C  pz        
    68     -0.231939   9 H  s                73      0.231585  10 H  s         
    63     -0.137677   8 H  s                37      0.136878   3 C  pz        
    58      0.136171   7 H  s                 6      0.129553   1 C  pz        
    23      0.121921   2 C  pz               48      0.073182   5 H  s         

 Vector    8  Occ=2.000000D+00  E=-6.272270D-01
              MO Center=  1.2D-01, -8.3D-03,  1.7D-04, r^2= 2.4D+00
   Bfn.  Coefficient  Atom+Function         Bfn.  Coefficient  Atom+Function  
  ----- ------------  ---------------      ----- ------------  ---------------
    18      0.286770   2 C  px               33     -0.275808   3 C  py        
     4      0.211450   1 C  px               32     -0.201656   3 C  px        
    19      0.192962   2 C  py               43      0.185328   4 H  s         
     5      0.160730   1 C  py               58      0.133306   7 H  s         
    63      0.131195   8 H  s                68      0.118953   9 H  s         

 Vector    9  Occ=2.000000D+00  E=-6.006055D-01
              MO Center=  4.6D-02,  3.0D-01, -7.1D-03, r^2= 2.3D+00
   Bfn.  Coefficient  Atom+Function         Bfn.  Coefficient  Atom+Function  
  ----- ------------  ---------------      ----- ------------  ---------------
     5      0.338767   1 C  py               19     -0.316258   2 C  py        
    32      0.280128   3 C  px               18      0.179525   2 C  px        
    43      0.178256   4 H  s                 4     -0.153566   1 C  px        
     8      0.134001   1 C  py               35      0.131879   3 C  px        
    31      0.121822   3 C  s                22     -0.107825   2 C  py        

 Vector   10  Occ=2.000000D+00  E=-5.938209D-01
              MO Center= -2.0D-01,  4.8D-02,  9.3D-03, r^2= 2.7D+00
   Bfn.  Coefficient  Atom+Function         Bfn.  Coefficient  Atom+Function  
  ----- ------------  ---------------      ----- ------------  ---------------
     6      0.316609   1 C  pz               34     -0.291386   3 C  pz        
    20      0.226544   2 C  pz               73     -0.207220  10 H  s         
    68      0.201864   9 H  s                48      0.196828   5 H  s         
    53     -0.190704   6 H  s                58      0.146898   7 H  s         
    63     -0.144303   8 H  s                 9      0.138549   1 C  pz        

 Vector   11  Occ=2.000000D+00  E=-5.430234D-01
              MO Center=  1.4D-02,  7.6D-01, -1.1D-03, r^2= 2.3D+00
   Bfn.  Coefficient  Atom+Function         Bfn.  Coefficient  Atom+Function  
  ----- ------------  ---------------      ----- ------------  ---------------
     4      0.360657   1 C  px               43      0.282681   4 H  s         
    18     -0.260491   2 C  px               53     -0.178950   6 H  s         
    48     -0.176927   5 H  s                33      0.167733   3 C  py        
    58     -0.153360   7 H  s                63     -0.152619   8 H  s         
    32      0.146344   3 C  px                7      0.134574   1 C  px        

 Vector   12  Occ=2.000000D+00  E=-5.227102D-01
              MO Center=  1.2D-01,  4.5D-01,  1.4D-04, r^2= 2.5D+00
   Bfn.  Coefficient  Atom+Function         Bfn.  Coefficient  Atom+Function  
  ----- ------------  ---------------      ----- ------------  ---------------
    20     -0.324856   2 C  pz                6      0.315536   1 C  pz        
    58     -0.253037   7 H  s                63      0.253642   8 H  s         
    48      0.241548   5 H  s                53     -0.240885   6 H  s         
    59     -0.116729   7 H  s                64      0.116830   8 H  s         
     9      0.112845   1 C  pz               49      0.108405   5 H  s         

 Vector   13  Occ=0.000000D+00  E=-4.613364D-01
              MO Center= -6.0D-02, -1.1D+00, -1.6D-03, r^2= 2.0D+00
   Bfn.  Coefficient  Atom+Function         Bfn.  Coefficient  Atom+Function  
  ----- ------------  ---------------      ----- ------------  ---------------
    33      0.470270   3 C  py               32     -0.350432   3 C  px        
    36      0.319705   3 C  py               35     -0.227963   3 C  px        
     5      0.212035   1 C  py               31     -0.210377   3 C  s         
    19     -0.161078   2 C  py               30     -0.126360   3 C  s         
    43      0.113146   4 H  s                 3     -0.106612   1 C  s         

 Vector   14  Occ=0.000000D+00  E=-1.638888D-01
              MO Center= -4.7D-01, -5.8D-01,  1.5D-02, r^2= 5.2D+00
   Bfn.  Coefficient  Atom+Function         Bfn.  Coefficient  Atom+Function  
  ----- ------------  ---------------      ----- ------------  ---------------
    31      1.108640   3 C  s                74     -0.864383  10 H  s         
    17      0.850993   2 C  s                69     -0.851212   9 H  s         
     3      0.631925   1 C  s                35     -0.545562   3 C  px        
    59     -0.436488   7 H  s                64     -0.430260   8 H  s         
    49     -0.414446   5 H  s                54     -0.412146   6 H  s         

 Vector   15  Occ=0.000000D+00  E=-1.297320D-01
              MO Center= -3.8D-01, -7.1D-01, -1.1D-02, r^2= 5.0D+00
   Bfn.  Coefficient  Atom+Function         Bfn.  Coefficient  Atom+Function  
  ----- ------------  ---------------      ----- ------------  ---------------
    69      1.068799   9 H  s                74     -1.028302  10 H  s         
    37      0.713058   3 C  pz               59     -0.668406   7 H  s         
    64      0.639976   8 H  s                49     -0.458373   5 H  s         
    54      0.456708   6 H  s                34      0.372078   3 C  pz        
    23      0.369489   2 C  pz                9      0.307404   1 C  pz        

 Vector   16  Occ=0.000000D+00  E=-1.197777D-01
              MO Center=  2.9D-01, -1.2D-01, -1.2D-02, r^2= 6.1D+00
   Bfn.  Coefficient  Atom+Function         Bfn.  Coefficient  Atom+Function  
  ----- ------------  ---------------      ----- ------------  ---------------
    17      1.324647   2 C  s                31     -1.321768   3 C  s         
     3      0.824920   1 C  s                64     -0.754533   8 H  s         
    74      0.732738  10 H  s                59     -0.708916   7 H  s         
    69      0.700434   9 H  s                44     -0.672582   4 H  s         
    22     -0.383309   2 C  py                8      0.283450   1 C  py        

 Vector   17  Occ=0.000000D+00  E=-9.675022D-02
              MO Center= -1.6D-01,  6.0D-01,  1.6D-03, r^2= 5.3D+00
   Bfn.  Coefficient  Atom+Function         Bfn.  Coefficient  Atom+Function  
  ----- ------------  ---------------      ----- ------------  ---------------
     3      1.531268   1 C  s                49     -0.959264   5 H  s         
    54     -0.960628   6 H  s                17     -0.764093   2 C  s         
    59      0.717012   7 H  s                64      0.708469   8 H  s         
    31     -0.601937   3 C  s                22     -0.586254   2 C  py        
    21     -0.375735   2 C  px                7     -0.291013   1 C  px        

 Vector   18  Occ=0.000000D+00  E=-7.800417D-02
              MO Center=  3.5D-01, -3.2D-01, -1.1D-01, r^2= 5.3D+00
   Bfn.  Coefficient  Atom+Function         Bfn.  Coefficient  Atom+Function  
  ----- ------------  ---------------      ----- ------------  ---------------
    64      1.211658   8 H  s                59     -1.052290   7 H  s         
    23      0.965400   2 C  pz               74      0.944525  10 H  s         
    69     -0.932169   9 H  s                37     -0.833194   3 C  pz        
    44     -0.436685   4 H  s                17     -0.419028   2 C  s         
    54      0.365111   6 H  s                49     -0.328032   5 H  s         

 Vector   19  Occ=0.000000D+00  E=-7.716561D-02
              MO Center=  2.7D-01,  8.8D-01,  1.2D-01, r^2= 5.1D+00
   Bfn.  Coefficient  Atom+Function         Bfn.  Coefficient  Atom+Function  
  ----- ------------  ---------------      ----- ------------  ---------------
    17      1.488551   2 C  s                44      1.410757   4 H  s         
     3     -1.048329   1 C  s                31     -0.782582   3 C  s         
    36     -0.676555   3 C  py               59     -0.611569   7 H  s         
     7     -0.540609   1 C  px               35     -0.411524   3 C  px        
    22     -0.332176   2 C  py               21     -0.326889   2 C  px        

 Vector   20  Occ=0.000000D+00  E=-5.915884D-02
              MO Center= -5.5D-01,  8.6D-01, -7.1D-04, r^2= 4.5D+00
   Bfn.  Coefficient  Atom+Function         Bfn.  Coefficient  Atom+Function  
  ----- ------------  ---------------      ----- ------------  ---------------
    49      1.437610   5 H  s                54     -1.431831   6 H  s         
     9     -1.210029   1 C  pz               23      0.744073   2 C  pz        
    64      0.730474   8 H  s                59     -0.725433   7 H  s         
     6     -0.376943   1 C  pz               74     -0.205670  10 H  s         
    69      0.202042   9 H  s                20      0.183246   2 C  pz        

 Vector   21  Occ=0.000000D+00  E=-5.335846D-02
              MO Center=  1.2D-01,  4.3D-01,  4.9D-03, r^2= 4.1D+00
   Bfn.  Coefficient  Atom+Function         Bfn.  Coefficient  Atom+Function  
  ----- ------------  ---------------      ----- ------------  ---------------
    21      1.550272   2 C  px               17     -1.367299   2 C  s         
     8     -1.264652   1 C  py               44      1.113271   4 H  s         
    31      0.974337   3 C  s                36      0.884159   3 C  py        
     3      0.852195   1 C  s                59     -0.640056   7 H  s         
    64     -0.626633   8 H  s                35      0.420349   3 C  px        

 Vector   22  Occ=0.000000D+00  E=-1.822761D-02
              MO Center=  1.3D-02,  3.0D-01, -5.9D-03, r^2= 3.6D+00
   Bfn.  Coefficient  Atom+Function         Bfn.  Coefficient  Atom+Function  
  ----- ------------  ---------------      ----- ------------  ---------------
    22      1.657538   2 C  py                7     -1.221350   1 C  px        
     8      0.889848   1 C  py                3     -0.861275   1 C  s         
    35      0.768126   3 C  px               54     -0.708191   6 H  s         
    49     -0.697561   5 H  s                17      0.641847   2 C  s         
    69      0.494532   9 H  s                74      0.472315  10 H  s         

 Vector   23  Occ=0.000000D+00  E= 1.431199D-01
              MO Center=  1.5D-01, -6.1D-01, -5.6D-03, r^2= 3.6D+00
   Bfn.  Coefficient  Atom+Function         Bfn.  Coefficient  Atom+Function  
  ----- ------------  ---------------      ----- ------------  ---------------
    68      0.485900   9 H  s                73     -0.481993  10 H  s         
    59      0.473700   7 H  s                64     -0.467460   8 H  s         
    58     -0.454013   7 H  s                63      0.446490   8 H  s         
    37      0.436296   3 C  pz               69     -0.346917   9 H  s         
    74      0.342333  10 H  s                53      0.228238   6 H  s         

 Vector   24  Occ=0.000000D+00  E= 1.587509D-01
              MO Center= -1.7D-01, -5.1D-01,  1.0D-03, r^2= 4.4D+00
   Bfn.  Coefficient  Atom+Function         Bfn.  Coefficient  Atom+Function  
  ----- ------------  ---------------      ----- ------------  ---------------
    36      1.104309   3 C  py               17     -0.675325   2 C  s         
    33     -0.600169   3 C  py               35      0.567889   3 C  px        
    31      0.494934   3 C  s                44     -0.419576   4 H  s         
    43      0.359617   4 H  s                19      0.260727   2 C  py        
    48     -0.258302   5 H  s                53     -0.250930   6 H  s         

 Vector   25  Occ=0.000000D+00  E= 1.650259D-01
              MO Center= -3.3D-01, -9.4D-02,  2.1D-04, r^2= 4.1D+00
   Bfn.  Coefficient  Atom+Function         Bfn.  Coefficient  Atom+Function  
  ----- ------------  ---------------      ----- ------------  ---------------
    21      1.064624   2 C  px               31      0.907147   3 C  s         
     8     -0.742008   1 C  py               17     -0.624315   2 C  s         
     3      0.600013   1 C  s                35     -0.565297   3 C  px        
    22      0.437392   2 C  py               68     -0.438002   9 H  s         
    73     -0.439023  10 H  s                 7     -0.364465   1 C  px        

 Vector   26  Occ=0.000000D+00  E= 1.865992D-01
              MO Center= -1.3D-01,  3.8D-01, -1.9D-04, r^2= 4.4D+00
   Bfn.  Coefficient  Atom+Function         Bfn.  Coefficient  Atom+Function  
  ----- ------------  ---------------      ----- ------------  ---------------
    37     -0.671254   3 C  pz                9      0.655237   1 C  pz        
    53      0.523201   6 H  s                48     -0.515761   5 H  s         
    49      0.402784   5 H  s                54     -0.402349   6 H  s         
    68     -0.314547   9 H  s                73      0.312600  10 H  s         
     6     -0.255064   1 C  pz               34      0.215469   3 C  pz        

 Vector   27  Occ=0.000000D+00  E= 1.926336D-01
              MO Center=  2.7D-01,  1.9D-01, -4.5D-03, r^2= 3.8D+00
   Bfn.  Coefficient  Atom+Function         Bfn.  Coefficient  Atom+Function  
  ----- ------------  ---------------      ----- ------------  ---------------
    21      0.832102   2 C  px                7     -0.740934   1 C  px        
    22     -0.662517   2 C  py                3      0.481856   1 C  s         
    19      0.363548   2 C  py                4      0.352344   1 C  px        
    33      0.339056   3 C  py               17      0.304437   2 C  s         
    36     -0.302797   3 C  py               18     -0.243279   2 C  px        

 Vector   28  Occ=0.000000D+00  E= 2.164700D-01
              MO Center=  1.0D-01, -9.6D-01,  7.4D-03, r^2= 3.7D+00
   Bfn.  Coefficient  Atom+Function         Bfn.  Coefficient  Atom+Function  
  ----- ------------  ---------------      ----- ------------  ---------------
     8      0.737652   1 C  py               35     -0.711668   3 C  px        
    36      0.668710   3 C  py               32      0.510829   3 C  px        
    21      0.458148   2 C  px               33     -0.400133   3 C  py        
    31      0.395873   3 C  s                22      0.347537   2 C  py        
    18     -0.319478   2 C  px               74     -0.318126  10 H  s         

 Vector   29  Occ=0.000000D+00  E= 3.111993D-01
              MO Center=  2.9D-01, -1.2D-01, -1.9D-03, r^2= 3.7D+00
   Bfn.  Coefficient  Atom+Function         Bfn.  Coefficient  Atom+Function  
  ----- ------------  ---------------      ----- ------------  ---------------
    17      2.032697   2 C  s                21     -1.627742   2 C  px        
    35     -1.244333   3 C  px               31     -1.137239   3 C  s         
     8      1.072808   1 C  py               36     -1.051008   3 C  py        
    22     -0.750473   2 C  py                3     -0.573674   1 C  s         
    16     -0.532916   2 C  s                32      0.461676   3 C  px        

 Vector   30  Occ=0.000000D+00  E= 3.409871D-01
              MO Center= -1.8D-01, -6.4D-01, -3.1D-04, r^2= 4.5D+00
   Bfn.  Coefficient  Atom+Function         Bfn.  Coefficient  Atom+Function  
  ----- ------------  ---------------      ----- ------------  ---------------
    37      2.137719   3 C  pz               23     -1.801679   2 C  pz        
    69      1.369311   9 H  s                74     -1.374750  10 H  s         
     9      1.149796   1 C  pz               34     -0.665732   3 C  pz        
    64     -0.667087   8 H  s                59      0.662795   7 H  s         
    20      0.490266   2 C  pz               54      0.363024   6 H  s         

 Vector   31  Occ=0.000000D+00  E= 3.450722D-01
              MO Center=  9.1D-02,  1.4D-01, -1.8D-03, r^2= 4.1D+00
   Bfn.  Coefficient  Atom+Function         Bfn.  Coefficient  Atom+Function  
  ----- ------------  ---------------      ----- ------------  ---------------
    22      2.896327   2 C  py                3     -1.706519   1 C  s         
     7     -1.529084   1 C  px               35      1.335497   3 C  px        
    31      1.160509   3 C  s                 8      1.039592   1 C  py        
    19     -0.687607   2 C  py               17      0.619355   2 C  s         
    21     -0.412403   2 C  px               44     -0.408526   4 H  s         

 Vector   32  Occ=0.000000D+00  E= 3.747593D-01
              MO Center= -3.2D-01, -5.7D-01,  6.0D-02, r^2= 4.1D+00
   Bfn.  Coefficient  Atom+Function         Bfn.  Coefficient  Atom+Function  
  ----- ------------  ---------------      ----- ------------  ---------------
    23      1.517486   2 C  pz               74     -1.218903  10 H  s         
    69      1.064282   9 H  s                 9     -1.047669   1 C  pz        
    37      0.545101   3 C  pz               34     -0.485006   3 C  pz        
    59     -0.446228   7 H  s                73      0.429307  10 H  s         
    49      0.414656   5 H  s                20     -0.398289   2 C  pz        

 Vector   33  Occ=0.000000D+00  E= 3.766278D-01
              MO Center= -1.5D-01,  1.6D-01, -5.5D-02, r^2= 4.7D+00
   Bfn.  Coefficient  Atom+Function         Bfn.  Coefficient  Atom+Function  
  ----- ------------  ---------------      ----- ------------  ---------------
    69      0.786128   9 H  s                21     -0.711827   2 C  px        
     3     -0.689754   1 C  s                31     -0.626214   3 C  s         
    43     -0.624277   4 H  s                44      0.602236   4 H  s         
    74      0.537700  10 H  s                36      0.513327   3 C  py        
    22      0.508072   2 C  py               64      0.472821   8 H  s         

 Vector   34  Occ=0.000000D+00  E= 4.023937D-01
              MO Center=  6.7D-01, -5.3D-04,  4.5D-03, r^2= 4.1D+00
   Bfn.  Coefficient  Atom+Function         Bfn.  Coefficient  Atom+Function  
  ----- ------------  ---------------      ----- ------------  ---------------
    59      1.444525   7 H  s                64     -1.438674   8 H  s         
    23     -0.986907   2 C  pz               37     -0.933520   3 C  pz        
    20      0.581293   2 C  pz               69     -0.508606   9 H  s         
    74      0.503644  10 H  s                54      0.433884   6 H  s         
    49     -0.423599   5 H  s                58     -0.386366   7 H  s         

 Vector   35  Occ=0.000000D+00  E= 4.075205D-01
              MO Center=  4.8D-02,  1.2D+00, -1.2D-02, r^2= 3.7D+00
   Bfn.  Coefficient  Atom+Function         Bfn.  Coefficient  Atom+Function  
  ----- ------------  ---------------      ----- ------------  ---------------
    44     -1.680517   4 H  s                 7      1.580664   1 C  px        
    54      1.027780   6 H  s                49      0.997781   5 H  s         
     8      0.718335   1 C  py                4     -0.689391   1 C  px        
    17     -0.626447   2 C  s                64      0.494905   8 H  s         
    59      0.462688   7 H  s                22     -0.424843   2 C  py        

 Vector   36  Occ=0.000000D+00  E= 4.157017D-01
              MO Center= -4.8D-01,  9.8D-01,  7.2D-03, r^2= 3.7D+00
   Bfn.  Coefficient  Atom+Function         Bfn.  Coefficient  Atom+Function  
  ----- ------------  ---------------      ----- ------------  ---------------
     9      1.828031   1 C  pz               49     -1.717693   5 H  s         
    54      1.691673   6 H  s                 6     -0.795875   1 C  pz        
    23      0.755751   2 C  pz               59     -0.639210   7 H  s         
    64      0.642250   8 H  s                69     -0.381233   9 H  s         
    74      0.369701  10 H  s                37     -0.357202   3 C  pz        

 Vector   37  Occ=0.000000D+00  E= 4.352891D-01
              MO Center=  2.4D-01, -2.7D-01,  3.9D-03, r^2= 4.8D+00
   Bfn.  Coefficient  Atom+Function         Bfn.  Coefficient  Atom+Function  
  ----- ------------  ---------------      ----- ------------  ---------------
    21      1.404956   2 C  px               59     -1.147928   7 H  s         
    64     -1.133882   8 H  s                74      0.991361  10 H  s         
    69      0.976372   9 H  s                35      0.911802   3 C  px        
    36      0.869416   3 C  py                7      0.855238   1 C  px        
    44     -0.593972   4 H  s                31     -0.517499   3 C  s         

 Vector   38  Occ=0.000000D+00  E= 4.599847D-01
              MO Center= -3.7D-01,  6.3D-01, -2.0D-03, r^2= 5.0D+00
   Bfn.  Coefficient  Atom+Function         Bfn.  Coefficient  Atom+Function  
  ----- ------------  ---------------      ----- ------------  ---------------
     8      1.173226   1 C  py               31     -1.170261   3 C  s         
    49     -0.971120   5 H  s                54     -0.971003   6 H  s         
     7     -0.791590   1 C  px               44     -0.764430   4 H  s         
    21     -0.743725   2 C  px               69      0.737563   9 H  s         
    74      0.730453  10 H  s                 3      0.621198   1 C  s         

 Vector   39  Occ=0.000000D+00  E= 5.843982D-01
              MO Center=  2.5D-02,  3.1D-01, -2.7D-04, r^2= 2.7D+00
   Bfn.  Coefficient  Atom+Function         Bfn.  Coefficient  Atom+Function  
  ----- ------------  ---------------      ----- ------------  ---------------
    31      1.241030   3 C  s                 3      0.699725   1 C  s         
     8      0.622913   1 C  py               30     -0.499848   3 C  s         
    22      0.481150   2 C  py               44     -0.482668   4 H  s         
    28      0.345678   2 C  d  2              2     -0.333987   1 C  s         
    14     -0.311812   1 C  d  2             36      0.310176   3 C  py        

 Vector   40  Occ=0.000000D+00  E= 6.046787D-01
              MO Center= -8.0D-02, -1.5D-01, -7.1D-02, r^2= 3.1D+00
   Bfn.  Coefficient  Atom+Function         Bfn.  Coefficient  Atom+Function  
  ----- ------------  ---------------      ----- ------------  ---------------
    31      1.459437   3 C  s                 3      0.821813   1 C  s         
    30     -0.572558   3 C  s                44     -0.513485   4 H  s         
     8      0.498394   1 C  py               22      0.473670   2 C  py        
     2     -0.396230   1 C  s                74     -0.357402  10 H  s         
    39     -0.344632   3 C  d -1             36      0.314719   3 C  py        

 Vector   41  Occ=0.000000D+00  E= 6.059032D-01
              MO Center= -1.3D-01, -2.4D-01,  7.4D-02, r^2= 3.6D+00
   Bfn.  Coefficient  Atom+Function         Bfn.  Coefficient  Atom+Function  
  ----- ------------  ---------------      ----- ------------  ---------------
    31      2.335803   3 C  s                 3      1.336124   1 C  s         
    30     -0.917730   3 C  s                44     -0.825060   4 H  s         
     8      0.797715   1 C  py               22      0.747692   2 C  py        
     2     -0.639778   1 C  s                36      0.504013   3 C  py        
    29     -0.425793   3 C  s                69     -0.427156   9 H  s         

 Vector   42  Occ=0.000000D+00  E= 7.871642D-01
              MO Center=  1.3D-01, -2.4D-01,  8.7D-04, r^2= 3.5D+00
   Bfn.  Coefficient  Atom+Function         Bfn.  Coefficient  Atom+Function  
  ----- ------------  ---------------      ----- ------------  ---------------
    17      2.708932   2 C  s                 3      2.300024   1 C  s         
    22     -1.367385   2 C  py               35     -1.089056   3 C  px        
    16     -1.065410   2 C  s                 2     -0.837956   1 C  s         
    31     -0.812606   3 C  s                15     -0.519749   2 C  s         
    59     -0.445703   7 H  s                64     -0.441698   8 H  s         

 Vector   43  Occ=0.000000D+00  E= 8.914697D-01
              MO Center= -1.2D-01,  2.4D-01, -4.1D-02, r^2= 3.2D+00
   Bfn.  Coefficient  Atom+Function         Bfn.  Coefficient  Atom+Function  
  ----- ------------  ---------------      ----- ------------  ---------------
    17      1.608355   2 C  s                 7     -0.936835   1 C  px        
    31     -0.857736   3 C  s                16     -0.607974   2 C  s         
     3      0.524173   1 C  s                 2     -0.420449   1 C  s         
    22      0.418059   2 C  py               35      0.405912   3 C  px        
     8     -0.367621   1 C  py               21      0.365174   2 C  px        

 Vector   44  Occ=0.000000D+00  E= 8.974013D-01
              MO Center=  1.5D-01, -6.9D-01,  3.7D-02, r^2= 2.6D+00
   Bfn.  Coefficient  Atom+Function         Bfn.  Coefficient  Atom+Function  
  ----- ------------  ---------------      ----- ------------  ---------------
    23      1.110999   2 C  pz               37     -0.978517   3 C  pz        
    25     -0.363189   2 C  d -1             39     -0.360869   3 C  d -1      
    59     -0.356247   7 H  s                76     -0.338860  10 H  py        
    74      0.314416  10 H  s                66      0.293780   8 H  py        
    71      0.295128   9 H  py               58     -0.275718   7 H  s         

 Vector   45  Occ=0.000000D+00  E= 9.303616D-01
              MO Center=  7.7D-02,  5.7D-01,  9.8D-04, r^2= 2.7D+00
   Bfn.  Coefficient  Atom+Function         Bfn.  Coefficient  Atom+Function  
  ----- ------------  ---------------      ----- ------------  ---------------
    23      1.405713   2 C  pz                9     -1.091336   1 C  pz        
    37     -0.508885   3 C  pz               11      0.433534   1 C  d -1      
    59     -0.381488   7 H  s                64      0.378549   8 H  s         
    49      0.324235   5 H  s                58     -0.323291   7 H  s         
    54     -0.320818   6 H  s                63      0.320058   8 H  s         

 Vector   46  Occ=0.000000D+00  E= 1.030951D+00
              MO Center= -1.4D-01,  8.2D-02,  1.7D-03, r^2= 3.7D+00
   Bfn.  Coefficient  Atom+Function         Bfn.  Coefficient  Atom+Function  
  ----- ------------  ---------------      ----- ------------  ---------------
     3      5.172218   1 C  s                17     -3.064277   2 C  s         
    31     -2.455576   3 C  s                22     -1.603611   2 C  py        
     2     -1.456735   1 C  s                30      0.924792   3 C  s         
     8     -0.897638   1 C  py                1     -0.753098   1 C  s         
     7      0.698172   1 C  px               16      0.676518   2 C  s         

 Vector   47  Occ=0.000000D+00  E= 1.150045D+00
              MO Center= -5.0D-01,  1.3D+00, -4.7D-03, r^2= 2.0D+00
   Bfn.  Coefficient  Atom+Function         Bfn.  Coefficient  Atom+Function  
  ----- ------------  ---------------      ----- ------------  ---------------
    47      0.583694   4 H  pz               50     -0.424048   5 H  px        
    55      0.425984   6 H  px               52     -0.301461   5 H  pz        
    57     -0.302683   6 H  pz               56      0.275747   6 H  py        
    51     -0.271204   5 H  py               37      0.248634   3 C  pz        
    17     -0.171132   2 C  s                72     -0.116551   9 H  pz        

 Vector   48  Occ=0.000000D+00  E= 1.162317D+00
              MO Center=  1.3D-02, -1.6D-01,  3.5D-03, r^2= 3.5D+00
   Bfn.  Coefficient  Atom+Function         Bfn.  Coefficient  Atom+Function  
  ----- ------------  ---------------      ----- ------------  ---------------
    17      7.288585   2 C  s                31     -4.198738   3 C  s         
     3     -3.855657   1 C  s                21     -2.444086   2 C  px        
    36     -1.641671   3 C  py               16     -1.552687   2 C  s         
     8      1.358146   1 C  py               15     -0.838304   2 C  s         
     7     -0.800938   1 C  px               30      0.689146   3 C  s         

 Vector   49  Occ=0.000000D+00  E= 1.195920D+00
              MO Center= -9.4D-02, -4.7D-01, -1.2D-02, r^2= 3.2D+00
   Bfn.  Coefficient  Atom+Function         Bfn.  Coefficient  Atom+Function  
  ----- ------------  ---------------      ----- ------------  ---------------
    31      2.538867   3 C  s                17     -1.889538   2 C  s         
    36      1.185322   3 C  py               30     -0.908329   3 C  s         
     8      0.693259   1 C  py                3     -0.650463   1 C  s         
    22      0.650138   2 C  py               35      0.541081   3 C  px        
    38      0.494137   3 C  d -2             21     -0.467340   2 C  px        

 Vector   50  Occ=0.000000D+00  E= 1.203322D+00
              MO Center= -7.0D-01, -1.2D+00,  6.0D-03, r^2= 2.1D+00
   Bfn.  Coefficient  Atom+Function         Bfn.  Coefficient  Atom+Function  
  ----- ------------  ---------------      ----- ------------  ---------------
    37      1.089206   3 C  pz               75     -0.519059  10 H  px        
    23     -0.511949   2 C  pz               70      0.506536   9 H  px        
    72     -0.480774   9 H  pz               77     -0.475420  10 H  pz        
    73     -0.378500  10 H  s                68      0.357149   9 H  s         
    74     -0.267476  10 H  s                69      0.262869   9 H  s         

 Vector   51  Occ=0.000000D+00  E= 1.283289D+00
              MO Center=  1.5D-01, -7.2D-02,  8.4D-03, r^2= 2.8D+00
   Bfn.  Coefficient  Atom+Function         Bfn.  Coefficient  Atom+Function  
  ----- ------------  ---------------      ----- ------------  ---------------
    22      0.902287   2 C  py               24     -0.535246   2 C  d -2      
     7     -0.462833   1 C  px               30      0.424473   3 C  s         
    42      0.424256   3 C  d  2             33      0.362049   3 C  py        
    45      0.359710   4 H  px                2     -0.336114   1 C  s         
    28      0.323059   2 C  d  2             17     -0.314773   2 C  s         

 Vector   52  Occ=0.000000D+00  E= 1.292336D+00
              MO Center=  3.5D-03, -3.7D-01, -2.0D-02, r^2= 2.8D+00
   Bfn.  Coefficient  Atom+Function         Bfn.  Coefficient  Atom+Function  
  ----- ------------  ---------------      ----- ------------  ---------------
    23      0.811493   2 C  pz               27     -0.681307   2 C  d  1      
    37     -0.660183   3 C  pz                9     -0.641506   1 C  pz        
    63      0.612585   8 H  s                58     -0.585344   7 H  s         
    41     -0.582076   3 C  d  1             68     -0.468728   9 H  s         
    73      0.448113  10 H  s                13     -0.329462   1 C  d  1      

 Vector   53  Occ=0.000000D+00  E= 1.307898D+00
              MO Center=  1.1D-01,  4.9D-01,  3.4D-03, r^2= 2.6D+00
   Bfn.  Coefficient  Atom+Function         Bfn.  Coefficient  Atom+Function  
  ----- ------------  ---------------      ----- ------------  ---------------
     7      0.985258   1 C  px                3      0.846943   1 C  s         
    17     -0.530695   2 C  s                21     -0.518332   2 C  px        
    26     -0.483957   2 C  d  0              2     -0.477192   1 C  s         
    12     -0.468412   1 C  d  0              8     -0.422855   1 C  py        
    58      0.404493   7 H  s                22     -0.340336   2 C  py        

 Vector   54  Occ=0.000000D+00  E= 1.321656D+00
              MO Center= -7.7D-03, -4.4D-01,  1.2D-02, r^2= 3.1D+00
   Bfn.  Coefficient  Atom+Function         Bfn.  Coefficient  Atom+Function  
  ----- ------------  ---------------      ----- ------------  ---------------
    41      0.620721   3 C  d  1              9     -0.530047   1 C  pz        
    73     -0.411069  10 H  s                68      0.399784   9 H  s         
    48      0.380400   5 H  s                66      0.368101   8 H  py        
    61     -0.364731   7 H  py               53     -0.360500   6 H  s         
    25      0.339172   2 C  d -1             13     -0.308395   1 C  d  1      

 Vector   55  Occ=0.000000D+00  E= 1.362025D+00
              MO Center=  1.4D-04,  5.1D-01, -3.1D-02, r^2= 2.9D+00
   Bfn.  Coefficient  Atom+Function         Bfn.  Coefficient  Atom+Function  
  ----- ------------  ---------------      ----- ------------  ---------------
    23     -0.944194   2 C  pz                9      0.930013   1 C  pz        
    13      0.621033   1 C  d  1             53      0.607976   6 H  s         
    48     -0.528470   5 H  s                64     -0.411970   8 H  s         
    60     -0.393674   7 H  px               59      0.324534   7 H  s         
    65      0.317405   8 H  px               27     -0.268937   2 C  d  1      

 Vector   56  Occ=0.000000D+00  E= 1.364624D+00
              MO Center=  3.3D-02, -1.7D-01,  3.2D-02, r^2= 3.2D+00
   Bfn.  Coefficient  Atom+Function         Bfn.  Coefficient  Atom+Function  
  ----- ------------  ---------------      ----- ------------  ---------------
     3      0.918866   1 C  s                16      0.828358   2 C  s         
    17     -0.797406   2 C  s                21     -0.793256   2 C  px        
    36     -0.481577   3 C  py               42      0.451290   3 C  d  2      
    22     -0.407619   2 C  py                2     -0.383643   1 C  s         
     8      0.378643   1 C  py               58      0.370702   7 H  s         

 Vector   57  Occ=0.000000D+00  E= 1.394691D+00
              MO Center= -1.3D-01,  6.9D-01,  3.8D-03, r^2= 3.1D+00
   Bfn.  Coefficient  Atom+Function         Bfn.  Coefficient  Atom+Function  
  ----- ------------  ---------------      ----- ------------  ---------------
     7      1.074146   1 C  px               22     -1.026283   2 C  py        
     3      0.849438   1 C  s                43     -0.714584   4 H  s         
    35     -0.618237   3 C  px               31     -0.444924   3 C  s         
    10      0.425447   1 C  d -2             38     -0.419329   3 C  d -2      
    45     -0.416818   4 H  px                8      0.379145   1 C  py        

 Vector   58  Occ=0.000000D+00  E= 1.408125D+00
              MO Center=  5.3D-01,  2.2D-01, -3.3D-04, r^2= 2.9D+00
   Bfn.  Coefficient  Atom+Function         Bfn.  Coefficient  Atom+Function  
  ----- ------------  ---------------      ----- ------------  ---------------
    23      1.542156   2 C  pz               37     -0.655162   3 C  pz        
    58     -0.499713   7 H  s                63      0.494059   8 H  s         
    62     -0.483338   7 H  pz               67     -0.480337   8 H  pz        
    59     -0.379086   7 H  s                64      0.377641   8 H  s         
    39     -0.296553   3 C  d -1             52     -0.290463   5 H  pz        

 Vector   59  Occ=0.000000D+00  E= 1.424320D+00
              MO Center=  3.1D-02,  3.7D-01,  2.2D-03, r^2= 3.3D+00
   Bfn.  Coefficient  Atom+Function         Bfn.  Coefficient  Atom+Function  
  ----- ------------  ---------------      ----- ------------  ---------------
     9      1.210394   1 C  pz               23     -1.149119   2 C  pz        
    54      0.474062   6 H  s                49     -0.469891   5 H  s         
    11     -0.464457   1 C  d -1             61     -0.383272   7 H  py        
    66      0.380400   8 H  py               47     -0.325069   4 H  pz        
    58      0.300848   7 H  s                63     -0.300777   8 H  s         

 Vector   60  Occ=0.000000D+00  E= 1.434741D+00
              MO Center=  4.1D-01,  3.5D-01,  2.1D-04, r^2= 3.0D+00
   Bfn.  Coefficient  Atom+Function         Bfn.  Coefficient  Atom+Function  
  ----- ------------  ---------------      ----- ------------  ---------------
    22      2.239017   2 C  py               31      1.863410   3 C  s         
     3     -1.662057   1 C  s                 8      1.264548   1 C  py        
     7     -0.812992   1 C  px               36      0.723169   3 C  py        
    61     -0.555008   7 H  py               66     -0.551628   8 H  py        
    24     -0.443031   2 C  d -2             35      0.429333   3 C  px        

 Vector   61  Occ=0.000000D+00  E= 1.534241D+00
              MO Center=  2.2D-02,  5.2D-02,  3.8D-04, r^2= 3.4D+00
   Bfn.  Coefficient  Atom+Function         Bfn.  Coefficient  Atom+Function  
  ----- ------------  ---------------      ----- ------------  ---------------
    17      2.056201   2 C  s                31     -1.489797   3 C  s         
    22     -0.799833   2 C  py               35     -0.784448   3 C  px        
     7     -0.708749   1 C  px               36     -0.636255   3 C  py        
    10      0.575535   1 C  d -2             38     -0.481825   3 C  d -2      
    26     -0.459267   2 C  d  0             44      0.460996   4 H  s         

 Vector   62  Occ=0.000000D+00  E= 1.561733D+00
              MO Center= -4.2D-01, -5.0D-01,  1.4D-02, r^2= 3.3D+00
   Bfn.  Coefficient  Atom+Function         Bfn.  Coefficient  Atom+Function  
  ----- ------------  ---------------      ----- ------------  ---------------
     3      0.971054   1 C  s                38      0.798592   3 C  d -2      
    76      0.619779  10 H  py               71      0.593632   9 H  py        
    17     -0.563036   2 C  s                 8     -0.469899   1 C  py        
    35      0.446258   3 C  px               21      0.442092   2 C  px        
    14     -0.433199   1 C  d  2             30      0.414511   3 C  s         

 Vector   63  Occ=0.000000D+00  E= 1.571274D+00
              MO Center= -4.0D-02, -1.5D-01, -1.4D-02, r^2= 3.4D+00
   Bfn.  Coefficient  Atom+Function         Bfn.  Coefficient  Atom+Function  
  ----- ------------  ---------------      ----- ------------  ---------------
    23      0.811558   2 C  pz               39     -0.769114   3 C  d -1      
     9     -0.685859   1 C  pz               37     -0.515387   3 C  pz        
    47      0.492083   4 H  pz               13      0.457464   1 C  d  1      
    71     -0.442371   9 H  py               76      0.404425  10 H  py        
    27      0.384083   2 C  d  1             64      0.344922   8 H  s         

 Vector   64  Occ=0.000000D+00  E= 1.658608D+00
              MO Center=  1.1D-02,  9.4D-02,  2.1D-03, r^2= 3.1D+00
   Bfn.  Coefficient  Atom+Function         Bfn.  Coefficient  Atom+Function  
  ----- ------------  ---------------      ----- ------------  ---------------
    31      1.550865   3 C  s                24     -0.961800   2 C  d -2      
     8      0.865559   1 C  py               17     -0.755021   2 C  s         
    36      0.687187   3 C  py                7      0.596159   1 C  px        
    40     -0.548424   3 C  d  0              3     -0.540454   1 C  s         
    12      0.527949   1 C  d  0             19      0.483341   2 C  py        

 Vector   65  Occ=0.000000D+00  E= 1.757918D+00
              MO Center= -1.8D-01,  1.1D+00, -4.2D-04, r^2= 2.6D+00
   Bfn.  Coefficient  Atom+Function         Bfn.  Coefficient  Atom+Function  
  ----- ------------  ---------------      ----- ------------  ---------------
    22     -0.747437   2 C  py                3      0.711008   1 C  s         
    10     -0.667526   1 C  d -2              8      0.645419   1 C  py        
    51     -0.605292   5 H  py               56     -0.605509   6 H  py        
    45      0.562831   4 H  px               61      0.379030   7 H  py        
    66      0.378139   8 H  py               46     -0.367561   4 H  py        

 Vector   66  Occ=0.000000D+00  E= 1.822362D+00
              MO Center=  1.3D-01,  1.4D-01, -1.6D-04, r^2= 3.3D+00
   Bfn.  Coefficient  Atom+Function         Bfn.  Coefficient  Atom+Function  
  ----- ------------  ---------------      ----- ------------  ---------------
     9      0.703131   1 C  pz               25     -0.637957   2 C  d -1      
    47     -0.585529   4 H  pz               20      0.543960   2 C  pz        
    39     -0.544644   3 C  d -1             49     -0.459822   5 H  s         
    34     -0.456070   3 C  pz               54      0.456854   6 H  s         
    11      0.414871   1 C  d -1             60      0.322683   7 H  px        

 Vector   67  Occ=0.000000D+00  E= 1.859498D+00
              MO Center=  1.8D-01, -4.2D-01, -2.2D-03, r^2= 2.9D+00
   Bfn.  Coefficient  Atom+Function         Bfn.  Coefficient  Atom+Function  
  ----- ------------  ---------------      ----- ------------  ---------------
    26      0.687088   2 C  d  0             40     -0.573612   3 C  d  0      
    21     -0.517067   2 C  px               42      0.493736   3 C  d  2      
    67      0.464046   8 H  pz               62     -0.460447   7 H  pz        
    72     -0.429379   9 H  pz               77      0.424576  10 H  pz        
    24      0.403154   2 C  d -2             31     -0.392437   3 C  s         

 Vector   68  Occ=0.000000D+00  E= 1.928389D+00
              MO Center=  8.5D-02, -7.6D-03,  4.7D-03, r^2= 3.2D+00
   Bfn.  Coefficient  Atom+Function         Bfn.  Coefficient  Atom+Function  
  ----- ------------  ---------------      ----- ------------  ---------------
    24      0.696094   2 C  d -2              3      0.674419   1 C  s         
    21      0.549985   2 C  px                7      0.499937   1 C  px        
    14     -0.502232   1 C  d  2             42      0.497345   3 C  d  2      
    17     -0.478226   2 C  s                35     -0.433939   3 C  px        
    70      0.427500   9 H  px               75      0.419602  10 H  px        

 Vector   69  Occ=0.000000D+00  E= 1.960026D+00
              MO Center= -1.1D-01,  5.2D-01, -4.2D-03, r^2= 3.0D+00
   Bfn.  Coefficient  Atom+Function         Bfn.  Coefficient  Atom+Function  
  ----- ------------  ---------------      ----- ------------  ---------------
    11      0.891885   1 C  d -1             25      0.649393   2 C  d -1      
    37      0.578686   3 C  pz               47     -0.520466   4 H  pz        
     6     -0.500666   1 C  pz               56      0.457155   6 H  py        
    51     -0.451343   5 H  py               20      0.432032   2 C  pz        
    69      0.422995   9 H  s                34      0.413980   3 C  pz        

 Vector   70  Occ=0.000000D+00  E= 1.983906D+00
              MO Center=  2.4D-01,  3.9D-01, -7.8D-04, r^2= 2.9D+00
   Bfn.  Coefficient  Atom+Function         Bfn.  Coefficient  Atom+Function  
  ----- ------------  ---------------      ----- ------------  ---------------
    17      0.921366   2 C  s                12      0.607003   1 C  d  0      
    60      0.605441   7 H  px               65      0.603687   8 H  px        
    14     -0.573918   1 C  d  2             16      0.525586   2 C  s         
    55     -0.511364   6 H  px               50     -0.507084   5 H  px        
    46     -0.485909   4 H  py               18      0.475294   2 C  px        

 Vector   71  Occ=0.000000D+00  E= 2.079493D+00
              MO Center= -5.4D-01, -9.0D-01, -4.1D-02, r^2= 2.9D+00
   Bfn.  Coefficient  Atom+Function         Bfn.  Coefficient  Atom+Function  
  ----- ------------  ---------------      ----- ------------  ---------------
    31      1.263896   3 C  s                68     -0.986919   9 H  s         
    30      0.906752   3 C  s                73     -0.885455  10 H  s         
    72     -0.855554   9 H  pz               32     -0.824467   3 C  px        
    40      0.792375   3 C  d  0             77      0.784710  10 H  pz        
    70     -0.700889   9 H  px               75     -0.630681  10 H  px        

 Vector   72  Occ=0.000000D+00  E= 2.086387D+00
              MO Center= -3.9D-01, -3.2D-01,  4.8D-02, r^2= 3.1D+00
   Bfn.  Coefficient  Atom+Function         Bfn.  Coefficient  Atom+Function  
  ----- ------------  ---------------      ----- ------------  ---------------
    41      1.006394   3 C  d  1             73     -0.934996  10 H  s         
    34      0.905650   3 C  pz               68      0.812645   9 H  s         
    77      0.761349  10 H  pz                6      0.729050   1 C  pz        
    37      0.677502   3 C  pz               72      0.646750   9 H  pz        
    53      0.614624   6 H  s                48     -0.608573   5 H  s         

 Vector   73  Occ=0.000000D+00  E= 2.144643D+00
              MO Center= -5.6D-01,  1.3D+00,  6.8D-04, r^2= 1.9D+00
   Bfn.  Coefficient  Atom+Function         Bfn.  Coefficient  Atom+Function  
  ----- ------------  ---------------      ----- ------------  ---------------
     2      1.256438   1 C  s                 3      1.073632   1 C  s         
    48     -0.801281   5 H  s                53     -0.800613   6 H  s         
    52      0.767375   5 H  pz               57     -0.767349   6 H  pz        
    50     -0.632976   5 H  px               55     -0.631816   6 H  px        
    46      0.623163   4 H  py                8      0.609694   1 C  py        

 Vector   74  Occ=0.000000D+00  E= 2.220197D+00
              MO Center=  6.3D-01,  1.2D-01,  3.9D-04, r^2= 2.4D+00
   Bfn.  Coefficient  Atom+Function         Bfn.  Coefficient  Atom+Function  
  ----- ------------  ---------------      ----- ------------  ---------------
    21      1.166623   2 C  px               28      1.041114   2 C  d  2      
    16      0.968959   2 C  s                31      0.936817   3 C  s         
    58     -0.881732   7 H  s                62      0.869446   7 H  pz        
    63     -0.873494   8 H  s                67     -0.862393   8 H  pz        
     3      0.719790   1 C  s                18      0.721631   2 C  px        

 Vector   75  Occ=0.000000D+00  E= 2.260691D+00
              MO Center= -2.0D-03,  1.0D+00, -5.6D-04, r^2= 2.5D+00
   Bfn.  Coefficient  Atom+Function         Bfn.  Coefficient  Atom+Function  
  ----- ------------  ---------------      ----- ------------  ---------------
    43      1.486842   4 H  s                46     -1.002101   4 H  py        
     7     -0.911324   1 C  px               12      0.906968   1 C  d  0      
     4     -0.897495   1 C  px               10     -0.858082   1 C  d -2      
    44      0.781649   4 H  s                45     -0.755262   4 H  px        
    14      0.726977   1 C  d  2              8     -0.705686   1 C  py        

 Vector   76  Occ=0.000000D+00  E= 2.320120D+00
              MO Center= -1.9D-01,  1.9D-01,  1.2D-04, r^2= 3.0D+00
   Bfn.  Coefficient  Atom+Function         Bfn.  Coefficient  Atom+Function  
  ----- ------------  ---------------      ----- ------------  ---------------
    13      1.208697   1 C  d  1             41     -1.005686   3 C  d  1      
    48     -0.988015   5 H  s                53      0.971018   6 H  s         
     9      0.871174   1 C  pz               25      0.813113   2 C  d -1      
     6      0.805341   1 C  pz               68     -0.781723   9 H  s         
    73      0.764333  10 H  s                52      0.671496   5 H  pz        

 Vector   77  Occ=0.000000D+00  E= 2.349899D+00
              MO Center=  4.5D-01,  8.5D-02, -9.1D-04, r^2= 2.5D+00
   Bfn.  Coefficient  Atom+Function         Bfn.  Coefficient  Atom+Function  
  ----- ------------  ---------------      ----- ------------  ---------------
    27      1.511664   2 C  d  1             58      1.283177   7 H  s         
    63     -1.281635   8 H  s                23     -1.260579   2 C  pz        
    20     -1.001227   2 C  pz               62     -0.770242   7 H  pz        
    67     -0.772313   8 H  pz               59      0.697993   7 H  s         
    64     -0.698952   8 H  s                13     -0.623805   1 C  d  1      


 center of mass
 --------------
 x =   0.02937685 y =  -0.06636736 z =  -0.00033057

 moments of inertia (a.u.)
 ------------------
         193.064911628017          -0.000000000000          -0.000000000000
          -0.000000000000          61.120958271352          -0.000000000000
          -0.000000000000          -0.000000000000         220.490402116281

     Multipole analysis of the density
     ---------------------------------

     L   x y z        total         alpha         beta         nuclear
     -   - - -        -----         -----         ----         -------
     0   0 0 0      1.000000    -12.000000    -12.000000     25.000000

     1   1 0 0     -0.214803     -0.107401     -0.107401     -0.000000
     1   0 1 0     -0.738076     -0.369038     -0.369038      0.000000
     1   0 0 1      0.000346      0.000173      0.000173      0.000000

     2   2 0 0    -11.514925    -22.565439    -22.565439     33.615952
     2   1 1 0      1.005749     -0.177571     -0.177571      1.360892
     2   1 0 1      0.002687     -0.001612     -0.001612      0.005910
     2   0 2 0     -6.583431    -57.215494    -57.215494    107.847557
     2   0 1 1     -0.000547      0.011580      0.011580     -0.023708
     2   0 0 2    -12.209668    -14.463288    -14.463288     16.716908


            General Information
            -------------------
          SCF calculation type: DFT
          Wavefunction type:  closed shell.
          No. of atoms     :    10
          No. of electrons :    24
           Alpha electrons :    12
            Beta electrons :    12
          Charge           :     1
          Spin multiplicity:     1
          Use of symmetry is: off; symmetry adaption is: off
          Maximum number of iterations:  50
          This is a Direct SCF calculation.
          AO basis - number of functions:    77
                     number of shells:    39
          Convergence on energy requested:  1.00D-08
          Convergence on density requested:  1.00D-07
          Convergence on gradient requested:  1.00D-06

              XC Information
              --------------
          PerdewBurkeErnzerhof Exchange Functional  1.000          
            Perdew 1991 LDA Correlation Functional  1.000 local    
           PerdewBurkeErnz. Correlation Functional  1.000 non-local

             Grid Information
             ----------------
          Grid used for XC integration:  medium    
          Radial quadrature: Mura-Knowles        
          Angular quadrature: Lebedev. 
          Tag              B.-S. Rad. Rad. Pts. Rad. Cut. Ang. Pts.
          ---              ---------- --------- --------- ---------
          C                   0.70       49          10.0       434
          H                   0.35       45          10.0       434
          Grid pruning is: on 
          Number of quadrature shells:   462
          Spatial weights used:  Erf1

          Convergence Information
          -----------------------
          Convergence aids based upon iterative change in 
          total energy or number of iterations. 
          Levelshifting, if invoked, occurs when the 
          HOMO/LUMO gap drops below (HL_TOL):  1.00D-02
[...]
           6    -0.04490     0.00048    -0.00018    -0.01563     0.00068    -0.04019
           7     0.00051     0.05154     0.03425     0.00003     0.04084     0.00053
           8    -0.00090    -0.13634     0.07759    -0.00013    -0.11252    -0.00171
           9     0.05931    -0.00048    -0.00021    -0.01779     0.00026    -0.01959
          10    -0.00226    -0.22441    -0.20012    -0.00005     0.26474     0.00453
          11     0.00350     0.44723     0.15107     0.00025    -0.28274    -0.00523
          12     0.63224    -0.00491    -0.00024    -0.16618    -0.00354     0.21196
          13    -0.38635    -0.10789    -0.20261    -0.08241     0.07860     0.14873
          14    -0.15602    -0.17699    -0.05124     0.23571     0.34373    -0.30591
          15    -0.19376    -0.01957    -0.00482    -0.09330     0.03807     0.12882
          16     0.38371    -0.11440    -0.20247     0.08221     0.08500    -0.14558
          17     0.15282    -0.17793    -0.05092    -0.23602     0.33367     0.31727
          18    -0.19342     0.02295     0.00559    -0.09352    -0.04310     0.12769
          19     0.11423    -0.08252     0.09091    -0.18558     0.01408    -0.39206
          20    -0.08185     0.01888    -0.08025    -0.40814    -0.03344     0.15949
          21    -0.09861    -0.00110     0.00872     0.16525    -0.00864     0.16047
          22    -0.11589    -0.08010     0.09128     0.18600     0.00101     0.39340
          23     0.08209     0.01646    -0.08078     0.40906    -0.02816    -0.16086
          24    -0.09810     0.00308    -0.00886     0.16402     0.00323     0.15895
          25    -0.08980    -0.07024     0.02039    -0.39654     0.14418    -0.18043
          26     0.00828     0.01183     0.06273     0.06423    -0.19396    -0.23754
          27     0.09488    -0.01465     0.01138     0.12966    -0.01312     0.16126
          28     0.08898    -0.07122     0.02030     0.39703     0.13770     0.18562
          29    -0.00768     0.01120     0.06298    -0.06393    -0.19897     0.23149
          30     0.09468     0.01339    -0.01163     0.12787     0.00826     0.16051

                   13          14          15          16          17          18
 
 P.Frequency     1005.01     1024.76     1096.47     1111.18     1168.11     1239.80
 
           1    -0.00044     0.00008     0.00927    -0.05905    -0.00003     0.01681
           2     0.00021    -0.00009    -0.00873    -0.02433    -0.00004    -0.07651
           3    -0.10714     0.07019    -0.00012     0.00007     0.00488    -0.00021
           4     0.00009    -0.00011     0.05579     0.03744    -0.00017     0.01860
           5    -0.00005     0.00005    -0.07483     0.05860     0.00010    -0.00369
           6     0.01607    -0.05750    -0.00018     0.00007    -0.11309     0.00020
           7     0.00020    -0.00003    -0.02810     0.06701     0.00028    -0.02592
           8     0.00001    -0.00005    -0.04314    -0.07981    -0.00011    -0.01535
           9     0.07793     0.01160     0.00022    -0.00022     0.09621    -0.00020
          10     0.00057    -0.00014     0.02855    -0.01160    -0.00061    -0.40896
          11    -0.00117     0.00019    -0.06334    -0.05056     0.00056     0.48737
          12     0.13444     0.00637     0.00024    -0.00013     0.11298     0.00209
          13     0.25820    -0.20301     0.03379     0.05254     0.03930     0.06061
          14    -0.14036     0.23469     0.10408     0.11563     0.10661     0.46985
          15     0.06840    -0.09048    -0.01557     0.02505     0.00156    -0.10102
          16    -0.25801     0.20322     0.03315     0.05286    -0.03950     0.05812
          17     0.14144    -0.23317     0.10429     0.11598    -0.10564     0.46762
          18     0.06828    -0.09036     0.01571    -0.02507     0.00204     0.10171
          19    -0.01301    -0.26664    -0.07083     0.10307    -0.28234     0.02529
          20    -0.04767     0.43431     0.60091    -0.18942    -0.25267    -0.04979
          21     0.03754     0.01776    -0.03587     0.00658     0.09128     0.00498
          22     0.01362     0.26708    -0.07028     0.10206     0.28351     0.02376
          23     0.04688    -0.43433     0.60069    -0.19016     0.25121    -0.04950
          24     0.03745     0.01690     0.03579    -0.00723     0.08963    -0.00537
          25    -0.10505    -0.07003    -0.19675    -0.42035     0.43179     0.06341
          26     0.51513     0.26703     0.08118     0.37065    -0.02783    -0.09437
          27    -0.09475    -0.07475     0.01442     0.01762    -0.07837    -0.01045
          28     0.10555     0.07022    -0.19761    -0.41917    -0.43318     0.06482
          29    -0.51637    -0.26767     0.08089     0.37006     0.02842    -0.09347
          30    -0.09491    -0.07471    -0.01377    -0.01578    -0.07634     0.01060

                   19          20          21          22          23          24
 
 P.Frequency     1286.65     1328.23     1370.03     1403.11     1486.83     2861.02
 
           1     0.00458     0.00008     0.05920     0.02623    -0.01066    -0.04972
           2     0.04046    -0.00031    -0.01245     0.00350     0.01767    -0.04690
           3    -0.00006     0.02952    -0.00005    -0.00003    -0.00001     0.00000
           4     0.10192     0.00030    -0.00070     0.07480     0.12323    -0.00055
           5     0.07080     0.00021     0.01639     0.02978     0.04133    -0.00553
           6    -0.00019    -0.02251     0.00007    -0.00018    -0.00031     0.00002
           7    -0.13521    -0.00042    -0.02422     0.02343    -0.11835     0.00278
           8    -0.04757    -0.00009    -0.03033     0.02309    -0.07565    -0.00095
           9     0.00018     0.04850     0.00005    -0.00008     0.00030    -0.00004
          10    -0.00582    -0.00127     0.18072     0.07072    -0.00686     0.73744
          11     0.06950     0.00184    -0.18037    -0.05986     0.03201     0.60848
          12     0.00131    -0.60931    -0.00039    -0.00001     0.00034     0.00050
          13    -0.01531    -0.28575    -0.49703    -0.16288     0.05770    -0.06084
          14    -0.11547    -0.42954     0.13008     0.04548    -0.06578    -0.00126
          15     0.03191    -0.03471    -0.33685    -0.10982     0.05808     0.07575
          16    -0.01658     0.28631    -0.49702    -0.16287     0.05736    -0.06103
          17    -0.11755     0.43217     0.13000     0.04522    -0.06601    -0.00094
          18    -0.03178    -0.03431     0.33739     0.10996    -0.05808    -0.07622
          19     0.35655    -0.05713     0.12244    -0.36970    -0.22728    -0.02326
          20    -0.01686    -0.05450    -0.00848    -0.08809    -0.05451     0.01155
          21    -0.11267     0.01837    -0.06118     0.27616     0.22861    -0.02907
          22     0.35644     0.05868     0.12247    -0.37099    -0.22851    -0.02279
          23    -0.01692     0.05428    -0.00832    -0.08852    -0.05482     0.01159
          24     0.11074     0.01823     0.06064    -0.27428    -0.22755     0.02902
          25    -0.16683     0.04185     0.07971    -0.24263     0.20750    -0.00188
          26    -0.28086     0.10449     0.12561    -0.26265     0.20345     0.00320
          27     0.09357    -0.00963    -0.11238     0.23124    -0.26937     0.00499
          28    -0.16661    -0.04215     0.08051    -0.24357     0.20886    -0.00211
          29    -0.28015    -0.10646     0.12570    -0.26279     0.20377     0.00300
          30    -0.09229    -0.00955     0.11197    -0.22980     0.26825    -0.00487

                   25          26          27          28          29          30
 
 P.Frequency     3047.01     3069.10     3086.49     3174.14     3177.58     3200.63
 
           1     0.05941     0.00223     0.00600     0.00026    -0.00001     0.00001
           2    -0.01939    -0.00452    -0.00408    -0.00006     0.00002     0.00000
           3    -0.00032    -0.00002    -0.00002     0.09518     0.00180    -0.00014
           4     0.00289    -0.06255    -0.00373    -0.00001     0.00017    -0.00012
           5     0.00288    -0.01794    -0.00126     0.00001     0.00002    -0.00002
           6     0.00005     0.00013    -0.00001    -0.00448     0.08310    -0.04945
           7    -0.00498     0.00526     0.04647    -0.00001    -0.00011    -0.00020
           8    -0.00486     0.00254     0.04522     0.00000    -0.00001    -0.00004
           9    -0.00001     0.00002    -0.00014     0.00129    -0.04983    -0.08233
          10    -0.07703     0.02934    -0.00239    -0.00054    -0.00018    -0.00006
          11    -0.07959     0.02424    -0.01045    -0.00044    -0.00014    -0.00001
          12    -0.00015    -0.00001    -0.00001     0.02084     0.00289     0.00252
          13    -0.31293    -0.01776    -0.03280     0.30836     0.01238    -0.00485
          14     0.14356     0.00851     0.01424    -0.13544    -0.00322     0.00437
          15     0.58627     0.03857     0.06380    -0.57018    -0.01730     0.00546
          16    -0.31142    -0.01774    -0.03275    -0.31082    -0.01216     0.00484
          17     0.14280     0.00846     0.01418     0.13651     0.00311    -0.00439
          18    -0.58236    -0.03841    -0.06345    -0.57358    -0.01680     0.00544
          19    -0.01869     0.33269    -0.00825     0.00919    -0.28105     0.17049
          20    -0.00514     0.09877    -0.00340     0.00927    -0.08438     0.05432
          21    -0.03398     0.58973    -0.01098     0.01592    -0.48550     0.29289
          22    -0.01811     0.32961    -0.00834    -0.00914     0.27900    -0.16900
          23    -0.00495     0.09825    -0.00341    -0.00933     0.08409    -0.05404
          24     0.03365    -0.59107     0.01120     0.01603    -0.48748     0.29363
          25     0.02809    -0.00040    -0.24928    -0.00274     0.12542     0.21380
          26     0.02892    -0.00061    -0.24328    -0.00263     0.12641     0.20655
          27     0.06202    -0.00457    -0.58629    -0.00207     0.29287     0.48488
          28     0.02756    -0.00019    -0.24647     0.00275    -0.12410    -0.21140
          29     0.02877    -0.00041    -0.24281     0.00268    -0.12625    -0.20610
          30    -0.06202     0.00425     0.58773    -0.00221     0.29378     0.48591



 ----------------------------------------------------------------------------
 Normal Eigenvalue ||    Projected Derivative Dipole Moments (debye/angs)
  Mode   [cm**-1]  ||      [d/dqX]             [d/dqY]           [d/dqZ]
 ------ ---------- || ------------------ ------------------ -----------------
    1       -0.000 ||       0.006               0.015             0.237
    2       -0.000 ||      -0.007               0.010             0.493
    3       -0.000 ||       0.373               0.413            -0.046
    4        0.000 ||      -0.248               0.602            -0.040
    5        0.000 ||       0.023               0.067             0.517
    6        0.000 ||      -0.592               0.020             0.004
    7      169.142 ||      -0.010              -0.006             0.410
    8      353.220 ||      -1.041              -0.582            -0.001
    9      508.030 ||       0.226              -0.573            -0.002
   10      775.812 ||       0.001               0.000             0.066
   11      835.495 ||       0.625              -0.176            -0.008
   12      850.751 ||       0.010              -0.002             0.370
   13     1005.009 ||      -0.001               0.000            -0.291
   14     1024.757 ||      -0.001              -0.001             0.021
   15     1096.470 ||       0.006               0.447             0.000
   16     1111.175 ||      -0.359               0.317             0.001
   17     1168.109 ||       0.001              -0.001            -0.129
   18     1239.805 ||      -0.002               0.765             0.003
   19     1286.654 ||       0.080              -0.098             0.001
   20     1328.227 ||       0.001              -0.000            -0.666
   21     1370.030 ||       0.162              -0.317            -0.002
   22     1403.112 ||       0.470               0.432            -0.001
   23     1486.828 ||       0.125              -0.042             0.000
   24     2861.019 ||       0.233               1.150             0.000
   25     3047.011 ||      -0.765               0.340             0.004
   26     3069.099 ||       0.443               0.022            -0.001
   27     3086.491 ||      -0.336              -0.367             0.001
   28     3174.140 ||      -0.001              -0.001            -0.836
   29     3177.581 ||       0.000              -0.000            -0.305
   30     3200.629 ||       0.002               0.001             0.858
 ----------------------------------------------------------------------------



  
  
 ----------------------------------------------------------------------------
 Normal Eigenvalue ||           Projected Infra Red Intensities
  Mode   [cm**-1]  || [atomic units] [(debye/angs)**2] [(KM/mol)] [arbitrary]
 ------ ---------- || -------------- ----------------- ---------- -----------
    1       -0.000 ||    0.002442           0.056         2.381       1.630
    2       -0.000 ||    0.010536           0.243        10.271       7.031
    3       -0.000 ||    0.013518           0.312        13.178       9.021
    4        0.000 ||    0.018446           0.426        17.982      12.310
    5        0.000 ||    0.011807           0.272        11.510       7.880
    6        0.000 ||    0.015224           0.351        14.841      10.160
    7      169.142 ||    0.007305           0.169         7.121       4.875
    8      353.220 ||    0.061627           1.422        60.077      41.127
    9      508.030 ||    0.016435           0.379        16.021      10.968
   10      775.812 ||    0.000192           0.004         0.187       0.128
   11      835.495 ||    0.018286           0.422        17.826      12.204
   12      850.751 ||    0.005940           0.137         5.790       3.964
   13     1005.009 ||    0.003682           0.085         3.589       2.457
   14     1024.757 ||    0.000020           0.000         0.020       0.013
   15     1096.470 ||    0.008661           0.200         8.443       5.780
   16     1111.175 ||    0.009954           0.230         9.703       6.643
   17     1168.109 ||    0.000723           0.017         0.705       0.482
   18     1239.805 ||    0.025338           0.585        24.701      16.910
   19     1286.654 ||    0.000696           0.016         0.679       0.465
   20     1328.227 ||    0.019251           0.444        18.767      12.848
   21     1370.030 ||    0.005492           0.127         5.354       3.665
   22     1403.112 ||    0.017689           0.408        17.244      11.805
   23     1486.828 ||    0.000754           0.017         0.735       0.503
   24     2861.019 ||    0.059668           1.377        58.167      39.820
   25     3047.011 ||    0.030338           0.700        29.575      20.246
   26     3069.099 ||    0.008518           0.197         8.304       5.684
   27     3086.491 ||    0.010719           0.247        10.450       7.154
   28     3174.140 ||    0.030323           0.700        29.561      20.237
   29     3177.581 ||    0.004044           0.093         3.942       2.699
   30     3200.629 ||    0.031904           0.736        31.101      21.291
 ----------------------------------------------------------------------------



 vib:animation  F

 Task  times  cpu:        0.0s     wall:        0.0s


                                NWChem Input Module
                                -------------------


 Summary of allocated global arrays
-----------------------------------
  No active global arrays


MA_summarize_allocated_blocks: starting scan ...
MA_summarize_allocated_blocks: scan completed: 0 heap blocks, 0 stack blocks
MA usage statistics:

	allocation statistics:
					      heap	     stack
					      ----	     -----
	current number of blocks	         0	         0
	maximum number of blocks	        24	        57
	current total bytes		         0	         0
	maximum total bytes		   1376960	 278113960
	maximum total K-bytes		      1377	    278114
	maximum total M-bytes		         2	       279


                                     CITATION
                                     --------
                Please cite the following reference when publishing
                           results obtained with NWChem:

          E. Apra, E. J. Bylaska, W. A. de Jong, N. Govind, K. Kowalski,
       T. P. Straatsma, M. Valiev, H. J. J. van Dam, Y. Alexeev, J. Anchell,
       V. Anisimov, F. W. Aquino, R. Atta-Fynn, J. Autschbach, N. P. Bauman,
     J. C. Becca, D. E. Bernholdt, K. Bhaskaran-Nair, S. Bogatko, P. Borowski,
         J. Boschen, J. Brabec, A. Bruner, E. Cauet, Y. Chen, G. N. Chuev,
      C. J. Cramer, J. Daily, M. J. O. Deegan, T. H. Dunning Jr., M. Dupuis,
   K. G. Dyall, G. I. Fann, S. A. Fischer, A. Fonari, H. Fruchtl, L. Gagliardi,
      J. Garza, N. Gawande, S. Ghosh, K. Glaesemann, A. W. Gotz, J. Hammond,
       V. Helms, E. D. Hermes, K. Hirao, S. Hirata, M. Jacquelin, L. Jensen,
   B. G. Johnson, H. Jonsson, R. A. Kendall, M. Klemm, R. Kobayashi, V. Konkov,
      S. Krishnamoorthy, M. Krishnan, Z. Lin, R. D. Lins, R. J. Littlefield,
      A. J. Logsdail, K. Lopata, W. Ma, A. V. Marenich, J. Martin del Campo,
   D. Mejia-Rodriguez, J. E. Moore, J. M. Mullin, T. Nakajima, D. R. Nascimento,
    J. A. Nichols, P. J. Nichols, J. Nieplocha, A. Otero-de-la-Roza, B. Palmer,
    A. Panyala, T. Pirojsirikul, B. Peng, R. Peverati, J. Pittner, L. Pollack,
   R. M. Richard, P. Sadayappan, G. C. Schatz, W. A. Shelton, D. W. Silverstein,
   D. M. A. Smith, T. A. Soares, D. Song, M. Swart, H. L. Taylor, G. S. Thomas,
            V. Tipparaju, D. G. Truhlar, K. Tsemekhman, T. Van Voorhis,
      A. Vazquez-Mayagoitia, P. Verma, O. Villa, A. Vishnu, K. D. Vogiatzis,
        D. Wang, J. H. Weare, M. J. Williamson, T. L. Windus, K. Wolinski,
        A. T. Wong, Q. Wu, C. Yang, Q. Yu, M. Zacharias, Z. Zhang, Y. Zhao,
                                and R. J. Harrison
                        "NWChem: Past, present, and future
                         J. Chem. Phys. 152, 184102 (2020)
                               doi:10.1063/5.0004997

                                      AUTHORS
                                      -------
  E. Apra, E. J. Bylaska, N. Govind, K. Kowalski, M. Valiev, D. Mejia-Rodriguez,
       A. Kunitsa, N. P. Bauman, A. Panyala, W. A. de Jong, T. P. Straatsma,
        H. J. J. van Dam, D. Wang, T. L. Windus, J. Hammond, J. Autschbach,
    K. Bhaskaran-Nair, J. Brabec, K. Lopata, S. A. Fischer, S. Krishnamoorthy,
     M. Jacquelin, W. Ma, M. Klemm, O. Villa, Y. Chen, V. Anisimov, F. Aquino,
    S. Hirata, M. T. Hackler, Eric Hermes, L. Jensen, J. E. Moore, J. C. Becca,
      V. Konjkov, T. Risthaus, M. Malagoli, A. Marenich, A. Otero-de-la-Roza,
        J. Mullin, P. Nichols, R. Peverati, J. Pittner, Y. Zhao, P.-D. Fan,
        A. Fonari, M. J. Williamson, R. J. Harrison, J. R. Rehr, M. Dupuis,
     D. Silverstein, D. M. A. Smith, J. Nieplocha, V. Tipparaju, M. Krishnan,
     B. E. Van Kuiken, A. Vazquez-Mayagoitia, M. Swart, Q. Wu, T. Van Voorhis,
     A. A. Auer, M. Nooijen, L. D. Crosby, E. Brown, G. Cisneros, G. I. Fann,
   H. Fruchtl, J. Garza, K. Hirao, R. A. Kendall, J. A. Nichols, K. Tsemekhman,
    K. Wolinski, J. Anchell, D. E. Bernholdt, P. Borowski, T. Clark, D. Clerc,
   H. Dachsel, M. J. O. Deegan, K. Dyall, D. Elwood, E. Glendening, M. Gutowski,
   A. C. Hess, J. Jaffe, B. G. Johnson, J. Ju, R. Kobayashi, R. Kutteh, Z. Lin,
   R. Littlefield, X. Long, B. Meng, T. Nakajima, S. Niu, L. Pollack, M. Rosing,
   K. Glaesemann, G. Sandrone, M. Stave, H. Taylor, G. Thomas, J. H. van Lenthe,
                               A. T. Wong, Z. Zhang.

 Total times  cpu:     1453.1s     wall:     1456.3s
