 argument  1 = /home/hvandam/nwchem-1-srp-hpc/QA/tests/ZSM-5/nwc/2-propanol-dft-pbe-thermo.nw



============================== echo of input deck ==============================
echo
start 2-propanol-dat

memory heap 100 mb stack 500 mb global 1024 mb

geometry
  #load ../xyz/2-propanol.xyz
  load 2-propanol.xyz
end

basis "cc-pvdz" spherical
  * library cc-pvdz
end
basis "cc-pvtz" spherical
  * library cc-pvtz
end
basis "cc-pvqz" spherical
  * library cc-pvqz
end
basis "cc-pv5z" spherical
  * library cc-pv5z
end
basis "cc-pv6z" spherical
  * library cc-pv6z
end

dft
  direct
  # select PBE functional following https://doi.org/10.1002/aic.15517
  xc xpbe96 cpbe96
  convergence energy 1e-8 density 1e-7 gradient 1e-6
end

set int:txs:limxmem              50000000

set "ao basis" "cc-pvdz"
task dft optimize
task dft frequencies
vib
  reuse
  temp 9 198.15 298.15 398.15 498.15 598.15 698.15 798.15 898.15 998.15
end
task dft frequencies

set "ao basis" "cc-pvtz"
task dft optimize
task dft frequencies
vib
  reuse
  temp 9 198.15 298.15 398.15 498.15 598.15 698.15 798.15 898.15 998.15
end
task dft frequencies

set "ao basis" "cc-pvqz"
task dft optimize
task dft frequencies
vib
  reuse
  temp 9 198.15 298.15 398.15 498.15 598.15 698.15 798.15 898.15 998.15
end
task dft frequencies

#set "ao basis" "cc-pv5z"
#task dft optimize

#set "ao basis" "cc-pv6z"
#task dft optimize
================================================================================


                                         
                                         


             Northwest Computational Chemistry Package (NWChem) 7.0.1
             --------------------------------------------------------


                    Environmental Molecular Sciences Laboratory
                       Pacific Northwest National Laboratory
                                Richland, WA 99352

                              Copyright (c) 1994-2020
                       Pacific Northwest National Laboratory
                            Battelle Memorial Institute

             NWChem is an open-source computational chemistry package
                        distributed under the terms of the
                      Educational Community License (ECL) 2.0
             A copy of the license is included with this distribution
                              in the LICENSE.TXT file

                                  ACKNOWLEDGMENT
                                  --------------

            This software and its documentation were developed at the
            EMSL at Pacific Northwest National Laboratory, a multiprogram
            national laboratory, operated for the U.S. Department of Energy
            by Battelle under Contract Number DE-AC05-76RL01830. Support
            for this work was provided by the Department of Energy Office
            of Biological and Environmental Research, Office of Basic
            Energy Sciences, and the Office of Advanced Scientific Computing.


           Job information
           ---------------

    hostname        = node005
    program         = /home/hvandam/nwchem-1-srp-hpc/bin/LINUX64/nwchem
    date            = Mon Oct 17 14:45:10 2022

    compiled        = Fri_Jul_08_12:50:28_2022
    source          = /home/hvandam/nwchem-1-srp-hpc
    nwchem branch   = 7.0.0
    nwchem revision = nwchem_on_git-4025-gba861c8c44
    ga revision     = 5.8.1
    use scalapack   = F
    input           = /home/hvandam/nwchem-1-srp-hpc/QA/tests/ZSM-5/nwc/2-propanol-dft-pbe-thermo.nw
    prefix          = 2-propanol-dat.
    data base       = ./2-propanol-dat.db
    status          = startup
    nproc           =       16
    time left       =     -1s



           Memory information
           ------------------

    heap     =   13107194 doubles =    100.0 Mbytes
    stack    =   65535999 doubles =    500.0 Mbytes
    global   =  134217728 doubles =   1024.0 Mbytes (distinct from heap & stack)
    total    =  212860921 doubles =   1624.0 Mbytes
    verify   = yes
    hardfail = no 


           Directory information
           ---------------------

  0 permanent = .
  0 scratch   = .




                                NWChem Input Module
                                -------------------



 Scaling coordinates for geometry "geometry" by  1.889725989
 (inverse scale =  0.529177249)

 CS  symmetry detected

          ------
          auto-z
          ------
  no constraints, skipping    0.0000000000000000     
  no constraints, skipping    0.0000000000000000     


                             Geometry "geometry" -> ""
                             -------------------------

 Output coordinates in angstroms (scale by  1.889725989 to convert to a.u.)

  No.       Tag          Charge          X              Y              Z
 ---- ---------------- ---------- -------------- -------------- --------------
    1 C                    6.0000    -0.65460260    -0.09741381    -1.25895017
    2 C                    6.0000     0.03795376     0.40135651     0.00000000
    3 O                    8.0000     1.39039092    -0.04342571     0.00000000
    4 C                    6.0000    -0.65460260    -0.09741381     1.25895017
    5 H                    1.0000    -0.12923770     0.25990065    -2.15091802
    6 H                    1.0000    -0.64565914    -1.19204838    -1.30561728
    7 H                    1.0000    -1.69252787     0.24618185    -1.30300562
    8 H                    1.0000     0.05288849     1.49650209     0.00000000
    9 H                    1.0000     1.38634227    -1.01633803     0.00000000
   10 H                    1.0000    -0.64565914    -1.19204838     1.30561728
   11 H                    1.0000    -0.12923770     0.25990065     2.15091802
   12 H                    1.0000    -1.69252787     0.24618185     1.30300562

      Atomic Mass 
      ----------- 

      C                 12.000000
      O                 15.994910
      H                  1.007825


 Effective nuclear repulsion energy (a.u.)     135.1162459626

            Nuclear Dipole moment (a.u.) 
            ----------------------------
        X                 Y               Z
 ---------------- ---------------- ----------------
    -0.0000000000     0.0000000000     0.0000000000

      Symmetry information
      --------------------

 Group name             Cs        
 Group number              2
 Group order               2
 No. of unique centers     8

      Symmetry unique atoms

     1    2    3    5    6    7    8    9



                                Z-matrix (autoz)
                                -------- 

 Units are Angstrom for bonds and degrees for angles

      Type          Name      I     J     K     L     M      Value
      ----------- --------  ----- ----- ----- ----- ----- ----------
    1 Stretch                  1     2                       1.52097
    2 Stretch                  1     5                       1.09512
    3 Stretch                  1     6                       1.09567
    4 Stretch                  1     7                       1.09421
    5 Stretch                  2     3                       1.42370
    6 Stretch                  2     4                       1.52097
    7 Stretch                  2     8                       1.09525
    8 Stretch                  3     9                       0.97292
    9 Stretch                  4    10                       1.09567
   10 Stretch                  4    11                       1.09512
   11 Stretch                  4    12                       1.09421
   12 Bend                     1     2     3               109.27466
   13 Bend                     1     2     4               111.73176
   14 Bend                     1     2     8               109.51823
   15 Bend                     2     1     5               110.41033
   16 Bend                     2     1     6               111.04849
   17 Bend                     2     1     7               111.23962
   18 Bend                     2     3     9               107.96629
   19 Bend                     2     4    10               111.04849
   20 Bend                     2     4    11               110.41033
   21 Bend                     2     4    12               111.23962
   22 Bend                     3     2     4               109.27466
   23 Bend                     3     2     8               107.42342
   24 Bend                     4     2     8               109.51823
   25 Bend                     5     1     6               106.70024
   26 Bend                     5     1     7               108.65130
   27 Bend                     6     1     7               108.64756
   28 Bend                    10     4    11               106.70024
   29 Bend                    10     4    12               108.64756
   30 Bend                    11     4    12               108.65130
   31 Torsion                  1     2     3     9         -61.26802
   32 Torsion                  1     2     4    10          60.89971
   33 Torsion                  1     2     4    11         179.04656
   34 Torsion                  1     2     4    12         -60.24141
   35 Torsion                  3     2     1     5         -57.99289
   36 Torsion                  3     2     1     6          60.15396
   37 Torsion                  3     2     1     7        -178.70491
   38 Torsion                  3     2     4    10         -60.15396
   39 Torsion                  3     2     4    11          57.99289
   40 Torsion                  3     2     4    12         178.70491
   41 Torsion                  4     2     1     5        -179.04656
   42 Torsion                  4     2     1     6         -60.89971
   43 Torsion                  4     2     1     7          60.24141
   44 Torsion                  4     2     3     9          61.26802
   45 Torsion                  5     1     2     8          59.42721
   46 Torsion                  6     1     2     8         177.57406
   47 Torsion                  7     1     2     8         -61.28481
   48 Torsion                  8     2     3     9         180.00000
   49 Torsion                  8     2     4    10        -177.57406
   50 Torsion                  8     2     4    11         -59.42721
   51 Torsion                  8     2     4    12          61.28481


            XYZ format geometry
            -------------------
    12
 geometry
 C                    -0.65460260    -0.09741381    -1.25895017
 C                     0.03795376     0.40135651     0.00000000
 O                     1.39039092    -0.04342571     0.00000000
 C                    -0.65460260    -0.09741381     1.25895017
 H                    -0.12923770     0.25990065    -2.15091802
 H                    -0.64565914    -1.19204838    -1.30561728
 H                    -1.69252787     0.24618185    -1.30300562
 H                     0.05288849     1.49650209     0.00000000
 H                     1.38634227    -1.01633803     0.00000000
 H                    -0.64565914    -1.19204838     1.30561728
 H                    -0.12923770     0.25990065     2.15091802
 H                    -1.69252787     0.24618185     1.30300562

 ==============================================================================
                                internuclear distances
 ------------------------------------------------------------------------------
       center one      |      center two      | atomic units |  angstroms
 ------------------------------------------------------------------------------
    2 C                |   1 C                |     2.87422  |     1.52097
    3 O                |   2 C                |     2.69040  |     1.42370
    4 C                |   2 C                |     2.87422  |     1.52097
    5 H                |   1 C                |     2.06948  |     1.09512
    6 H                |   1 C                |     2.07051  |     1.09567
    7 H                |   1 C                |     2.06775  |     1.09421
    8 H                |   2 C                |     2.06972  |     1.09525
    9 H                |   3 O                |     1.83855  |     0.97292
   10 H                |   4 C                |     2.07051  |     1.09567
   11 H                |   4 C                |     2.06948  |     1.09512
   12 H                |   4 C                |     2.06775  |     1.09421
 ------------------------------------------------------------------------------
                         number of included internuclear distances:         11
 ==============================================================================



 ==============================================================================
                                 internuclear angles
 ------------------------------------------------------------------------------
        center 1       |       center 2       |       center 3       |  degrees
 ------------------------------------------------------------------------------
    2 C                |   1 C                |   5 H                |   110.41
    2 C                |   1 C                |   6 H                |   111.05
    2 C                |   1 C                |   7 H                |   111.24
    5 H                |   1 C                |   6 H                |   106.70
    5 H                |   1 C                |   7 H                |   108.65
    6 H                |   1 C                |   7 H                |   108.65
    1 C                |   2 C                |   3 O                |   109.27
    1 C                |   2 C                |   4 C                |   111.73
    1 C                |   2 C                |   8 H                |   109.52
    3 O                |   2 C                |   4 C                |   109.27
    3 O                |   2 C                |   8 H                |   107.42
    4 C                |   2 C                |   8 H                |   109.52
    2 C                |   3 O                |   9 H                |   107.97
    2 C                |   4 C                |  10 H                |   111.05
    2 C                |   4 C                |  11 H                |   110.41
    2 C                |   4 C                |  12 H                |   111.24
   10 H                |   4 C                |  11 H                |   106.70
   10 H                |   4 C                |  12 H                |   108.65
   11 H                |   4 C                |  12 H                |   108.65
 ------------------------------------------------------------------------------
                            number of included internuclear angles:         19
 ==============================================================================





 Summary of "cc-pvdz" -> "" (spherical)
 ------------------------------------------------------------------------------
       Tag                 Description            Shells   Functions and Types
 ---------------- ------------------------------  ------  ---------------------
 *                          cc-pvdz                   on all atoms 




 Summary of "cc-pvtz" -> "" (spherical)
 ------------------------------------------------------------------------------
       Tag                 Description            Shells   Functions and Types
 ---------------- ------------------------------  ------  ---------------------
 *                          cc-pvtz                   on all atoms 




 Summary of "cc-pvqz" -> "" (spherical)
 ------------------------------------------------------------------------------
       Tag                 Description            Shells   Functions and Types
 ---------------- ------------------------------  ------  ---------------------
 *                          cc-pvqz                   on all atoms 




 Summary of "cc-pv5z" -> "" (spherical)
 ------------------------------------------------------------------------------
       Tag                 Description            Shells   Functions and Types
 ---------------- ------------------------------  ------  ---------------------
 *                          cc-pv5z                   on all atoms 




 Summary of "cc-pv6z" -> "" (spherical)
 ------------------------------------------------------------------------------
       Tag                 Description            Shells   Functions and Types
 ---------------- ------------------------------  ------  ---------------------
 *                          cc-pv6z                   on all atoms 


  pbe96 is a nonlocal functional; adding pw91lda local functional. 


                           NWChem Geometry Optimization
                           ----------------------------


  no constraints, skipping    0.0000000000000000     
 maximum gradient threshold         (gmax) =   0.000450
 rms gradient threshold             (grms) =   0.000300
 maximum cartesian step threshold   (xmax) =   0.001800
 rms cartesian step threshold       (xrms) =   0.001200
 fixed trust radius                (trust) =   0.300000
 maximum step size to saddle      (sadstp) =   0.100000
 energy precision                  (eprec) =   5.0D-06
 maximum number of steps          (nptopt) =   40
 initial hessian option           (inhess) =    0
 line search option               (linopt) =    1
 hessian update option            (modupd) =    1
 saddle point option              (modsad) =    0
 initial eigen-mode to follow     (moddir) =    0
 initial variable to follow       (vardir) =    0
 follow first negative mode     (firstneg) =    T
 apply conjugacy                    (opcg) =    F
 source of zmatrix                         =   autoz   


          -------------------
          Energy Minimization
          -------------------


 Names of Z-matrix variables 
    1              2              3              4              5         
    6              7              8              9             10         
   11             12             13             14             15         
   16             17             18             19             20         
   21             22             23             24             25         
   26             27             28             29             30         
   31             32             33             34             35         
   36             37             38             39             40         
   41             42             43             44             45         
   46             47             48             49             50         
   51         

 Variables with the same non-blank name are constrained to be equal


 Using diagonal initial Hessian 
 Scaling for Hessian diagonals: bonds = 1.00  angles = 0.25  torsions = 0.10

          --------
          Step   0
          --------


                         Geometry "geometry" -> "geometry"
                         ---------------------------------

 Output coordinates in angstroms (scale by  1.889725989 to convert to a.u.)

  No.       Tag          Charge          X              Y              Z
 ---- ---------------- ---------- -------------- -------------- --------------
    1 C                    6.0000    -0.65460260    -0.09741381    -1.25895017
    2 C                    6.0000     0.03795376     0.40135651     0.00000000
    3 O                    8.0000     1.39039092    -0.04342571     0.00000000
    4 C                    6.0000    -0.65460260    -0.09741381     1.25895017
    5 H                    1.0000    -0.12923770     0.25990065    -2.15091802
    6 H                    1.0000    -0.64565914    -1.19204838    -1.30561728
    7 H                    1.0000    -1.69252787     0.24618185    -1.30300562
    8 H                    1.0000     0.05288849     1.49650209     0.00000000
    9 H                    1.0000     1.38634227    -1.01633803     0.00000000
   10 H                    1.0000    -0.64565914    -1.19204838     1.30561728
   11 H                    1.0000    -0.12923770     0.25990065     2.15091802
   12 H                    1.0000    -1.69252787     0.24618185     1.30300562

      Atomic Mass 
      ----------- 

      C                 12.000000
      O                 15.994910
      H                  1.007825


 Effective nuclear repulsion energy (a.u.)     135.1162459626

            Nuclear Dipole moment (a.u.) 
            ----------------------------
        X                 Y               Z
 ---------------- ---------------- ----------------
    -0.0000000000     0.0000000000     0.0000000000

      Symmetry information
      --------------------

 Group name             Cs        
 Group number              2
 Group order               2
 No. of unique centers     8

      Symmetry unique atoms

     1    2    3    5    6    7    8    9


                                 NWChem DFT Module
                                 -----------------


                      Basis "ao basis" -> "cc-pvdz" (spherical)
                      -----
  C (Carbon)
  ----------
            Exponent  Coefficients 
       -------------- ---------------------------------------------------------
  1 S  6.66500000E+03  0.000692
  1 S  1.00000000E+03  0.005329
  1 S  2.28000000E+02  0.027077
  1 S  6.47100000E+01  0.101718
  1 S  2.10600000E+01  0.274740
  1 S  7.49500000E+00  0.448564
  1 S  2.79700000E+00  0.285074
  1 S  5.21500000E-01  0.015204

  2 S  6.66500000E+03 -0.000146
  2 S  1.00000000E+03 -0.001154
  2 S  2.28000000E+02 -0.005725
  2 S  6.47100000E+01 -0.023312
  2 S  2.10600000E+01 -0.063955
  2 S  7.49500000E+00 -0.149981
  2 S  2.79700000E+00 -0.127262
  2 S  5.21500000E-01  0.544529

  3 S  1.59600000E-01  1.000000

  4 P  9.43900000E+00  0.038109
  4 P  2.00200000E+00  0.209480
  4 P  5.45600000E-01  0.508557

  5 P  1.51700000E-01  1.000000

  6 D  5.50000000E-01  1.000000

  O (Oxygen)
  ----------
            Exponent  Coefficients 
       -------------- ---------------------------------------------------------
  1 S  1.17200000E+04  0.000710
  1 S  1.75900000E+03  0.005470
  1 S  4.00800000E+02  0.027837
  1 S  1.13700000E+02  0.104800
  1 S  3.70300000E+01  0.283062
  1 S  1.32700000E+01  0.448719
  1 S  5.02500000E+00  0.270952
  1 S  1.01300000E+00  0.015458

  2 S  1.17200000E+04 -0.000160
  2 S  1.75900000E+03 -0.001263
  2 S  4.00800000E+02 -0.006267
  2 S  1.13700000E+02 -0.025716
  2 S  3.70300000E+01 -0.070924
  2 S  1.32700000E+01 -0.165411
  2 S  5.02500000E+00 -0.116955
  2 S  1.01300000E+00  0.557368

  3 S  3.02300000E-01  1.000000

  4 P  1.77000000E+01  0.043018
  4 P  3.85400000E+00  0.228913
  4 P  1.04600000E+00  0.508728

  5 P  2.75300000E-01  1.000000

  6 D  1.18500000E+00  1.000000

  H (Hydrogen)
  ------------
            Exponent  Coefficients 
       -------------- ---------------------------------------------------------
  1 S  1.30100000E+01  0.019685
  1 S  1.96200000E+00  0.137977
  1 S  4.44600000E-01  0.478148

  2 S  1.22000000E-01  1.000000

  3 P  7.27000000E-01  1.000000



 Summary of "ao basis" -> "cc-pvdz" (spherical)
 ------------------------------------------------------------------------------
       Tag                 Description            Shells   Functions and Types
 ---------------- ------------------------------  ------  ---------------------
 C                          cc-pvdz                  6       14   3s2p1d
 O                          cc-pvdz                  6       14   3s2p1d
 H                          cc-pvdz                  3        5   2s1p




 Summary of "ao basis" -> "cc-pvdz" (spherical)
 ------------------------------------------------------------------------------
       Tag                 Description            Shells   Functions and Types
 ---------------- ------------------------------  ------  ---------------------
 C                          cc-pvdz                  6       14   3s2p1d
 O                          cc-pvdz                  6       14   3s2p1d
 H                          cc-pvdz                  3        5   2s1p


      Symmetry analysis of basis
      --------------------------

        a'         57
        a"         39

  texas integral default override: limxmem =             50000000
  Caching 1-el integrals 
  itol2e modified to match energy
  convergence criterion.
  tol_rho modified to match energy
  convergence criterion.

            General Information
            -------------------
          SCF calculation type: DFT
          Wavefunction type:  closed shell.
          No. of atoms     :    12
          No. of electrons :    34
           Alpha electrons :    17
            Beta electrons :    17
          Charge           :     0
          Spin multiplicity:     1
          Use of symmetry is: on ; symmetry adaption is: on 
          Maximum number of iterations:  50
          This is a Direct SCF calculation.
          AO basis - number of functions:    96
                     number of shells:    48
          Convergence on energy requested:  1.00D-08
          Convergence on density requested:  1.00D-07
          Convergence on gradient requested:  1.00D-06

              XC Information
              --------------
          PerdewBurkeErnzerhof Exchange Functional  1.000          
            Perdew 1991 LDA Correlation Functional  1.000 local    
           PerdewBurkeErnz. Correlation Functional  1.000 non-local

             Grid Information
             ----------------
          Grid used for XC integration:  medium    
          Radial quadrature: Mura-Knowles        
          Angular quadrature: Lebedev. 
          Tag              B.-S. Rad. Rad. Pts. Rad. Cut. Ang. Pts.
          ---              ---------- --------- --------- ---------
          C                   0.70       49          10.0       434
          O                   0.60       49          10.0       434
          H                   0.35       45          11.0       434
          Grid pruning is: on 
          Number of quadrature shells:   372
          Spatial weights used:  Erf1

          Convergence Information
          -----------------------
          Convergence aids based upon iterative change in 
          total energy or number of iterations. 
          Levelshifting, if invoked, occurs when the 
          HOMO/LUMO gap drops below (HL_TOL):  1.00D-02
          DIIS, if invoked, will attempt to extrapolate 
          using up to (NFOCK): 10 stored Fock matrices.

                    Damping( 0%)  Levelshifting(0.5)       DIIS
                  --------------- ------------------- ---------------
          dE  on:    start            ASAP                start   
          dE off:    2 iters         50 iters            50 iters 


      Screening Tolerance Information
      -------------------------------
          Density screening/tol_rho:  1.00D-11
          AO Gaussian exp screening on grid/accAOfunc:  18
          CD Gaussian exp screening on grid/accCDfunc:  20
          XC Gaussian exp screening on grid/accXCfunc:  20
          Schwarz screening/accCoul:  1.00D-09


      Superposition of Atomic Density Guess
      -------------------------------------

 Sum of atomic energies:        -191.75634144

      Non-variational initial energy
      ------------------------------

 Total energy =    -194.233072
 1-e energy   =    -525.901969
 2-e energy   =     196.552650
 HOMO         =      -0.361490
 LUMO         =       0.090452


      Symmetry analysis of molecular orbitals - initial
      -------------------------------------------------

  Numbering of irreducible representations: 

     1 a'          2 a"      

  Orbital symmetries:

     1 a'          2 a'          3 a"          4 a'          5 a'      
     6 a'          7 a"          8 a'          9 a'         10 a'      
    11 a"         12 a'         13 a"         14 a'         15 a"      
    16 a'         17 a"         18 a'         19 a'         20 a'      
    21 a"         22 a'         23 a'         24 a"         25 a"      
    26 a'         27 a'      

   Time after variat. SCF:      1.0
   Time prior to 1st pass:      1.0

 Grid_pts file          = ./2-propanol-dat.gridpts.00
 Record size in doubles =  12289        No. of grid_pts per rec  =   3070
 Max. records in memory =      5        Max. recs in file   =    110900


           Memory utilization after 1st SCF pass: 
           Heap Space remaining (MW):       13.03            13033658
          Stack Space remaining (MW):       65.54            65535172

   convergence    iter        energy       DeltaE   RMS-Dens  Diis-err    time
 ---------------- ----- ----------------- --------- --------- ---------  ------
 d= 0,ls=0.0,diis     1   -194.0411180206 -3.29D+02  1.24D-02  6.10D-01     1.6
 d= 0,ls=0.0,diis     2   -194.0085450028  3.26D-02  7.83D-03  9.86D-01     2.1
 d= 0,ls=0.0,diis     3   -194.0956484486 -8.71D-02  1.80D-03  9.12D-02     2.8
 d= 0,ls=0.0,diis     4   -194.1035206404 -7.87D-03  5.18D-04  4.58D-03     3.3
 d= 0,ls=0.0,diis     5   -194.1039970460 -4.76D-04  1.61D-04  4.74D-04     3.9
  Resetting Diis
 d= 0,ls=0.0,diis     6   -194.1040556435 -5.86D-05  2.79D-05  6.86D-06     4.6
 d= 0,ls=0.0,diis     7   -194.1040564862 -8.43D-07  1.50D-05  7.40D-07     5.2
 d= 0,ls=0.0,diis     8   -194.1040564237  6.25D-08  8.51D-06  1.24D-06     5.8
 d= 0,ls=0.0,diis     9   -194.1040565891 -1.65D-07  1.18D-06  3.01D-08     6.4
 d= 0,ls=0.0,diis    10   -194.1040565927 -3.62D-09  2.72D-07  1.07D-09     7.0
 d= 0,ls=0.0,diis    11   -194.1040565928 -8.52D-11  8.48D-08  1.60D-10     7.6


         Total DFT energy =     -194.104056592775
      One electron energy =     -530.243382365866
           Coulomb energy =      228.648903950864
    Exchange-Corr. energy =      -27.625824140381
 Nuclear repulsion energy =      135.116245962608

 Numeric. integr. density =       34.000003149428

     Total iterative time =      6.6s



                  Occupations of the irreducible representations
                  ----------------------------------------------

                     irrep           alpha         beta
                     --------     --------     --------
                     a'               11.0         11.0
                     a"                6.0          6.0


                       DFT Final Molecular Orbital Analysis
                       ------------------------------------

 Vector    1  Occ=2.000000D+00  E=-1.874736D+01  Symmetry=a'
              MO Center=  1.4D+00, -4.3D-02, -2.0D-19, r^2= 1.5D-02
   Bfn.  Coefficient  Atom+Function         Bfn.  Coefficient  Atom+Function  
  ----- ------------  ---------------      ----- ------------  ---------------
    29      1.004461   3 O  s         

 Vector    2  Occ=2.000000D+00  E=-9.938178D+00  Symmetry=a'
              MO Center=  3.8D-02,  4.0D-01,  2.1D-20, r^2= 2.8D-02
   Bfn.  Coefficient  Atom+Function         Bfn.  Coefficient  Atom+Function  
  ----- ------------  ---------------      ----- ------------  ---------------
    15      1.008244   2 C  s                17     -0.029646   2 C  s         

 Vector    3  Occ=2.000000D+00  E=-9.883324D+00  Symmetry=a"
              MO Center= -6.5D-01, -9.7D-02, -6.3D-11, r^2= 1.6D+00
   Bfn.  Coefficient  Atom+Function         Bfn.  Coefficient  Atom+Function  
  ----- ------------  ---------------      ----- ------------  ---------------
     1      0.713089   1 C  s                43     -0.713089   4 C  s         

 Vector    4  Occ=2.000000D+00  E=-9.883302D+00  Symmetry=a'
              MO Center= -6.5D-01, -9.7D-02,  6.3D-11, r^2= 1.6D+00
   Bfn.  Coefficient  Atom+Function         Bfn.  Coefficient  Atom+Function  
  ----- ------------  ---------------      ----- ------------  ---------------
     1      0.712441   1 C  s                43      0.712441   4 C  s         

 Vector    5  Occ=2.000000D+00  E=-9.224104D-01  Symmetry=a'
              MO Center=  1.1D+00, -1.2D-01,  7.6D-16, r^2= 6.7D-01
   Bfn.  Coefficient  Atom+Function         Bfn.  Coefficient  Atom+Function  
  ----- ------------  ---------------      ----- ------------  ---------------
    30      0.410831   3 O  s                31      0.378536   3 O  s         
    77      0.178668   9 H  s                16      0.156289   2 C  s         
    18      0.099440   2 C  px               32     -0.099449   3 O  px        
    17      0.062481   2 C  s                33     -0.058779   3 O  py        
    19     -0.047354   2 C  py               72      0.039539   8 H  s         

 Vector    6  Occ=2.000000D+00  E=-6.944134D-01  Symmetry=a'
              MO Center= -3.0D-01,  5.5D-02, -7.2D-17, r^2= 2.1D+00
   Bfn.  Coefficient  Atom+Function         Bfn.  Coefficient  Atom+Function  
  ----- ------------  ---------------      ----- ------------  ---------------
    16      0.228746   2 C  s                17      0.222698   2 C  s         
     2      0.217791   1 C  s                44      0.217791   4 C  s         
    31     -0.157606   3 O  s                30     -0.145172   3 O  s         
    77     -0.105862   9 H  s                18     -0.097775   2 C  px        
     3      0.095507   1 C  s                45      0.095507   4 C  s         

 Vector    7  Occ=2.000000D+00  E=-6.202718D-01  Symmetry=a"
              MO Center= -6.0D-01, -8.2D-02,  5.0D-15, r^2= 2.8D+00
   Bfn.  Coefficient  Atom+Function         Bfn.  Coefficient  Atom+Function  
  ----- ------------  ---------------      ----- ------------  ---------------
     2      0.274215   1 C  s                44     -0.274215   4 C  s         
    20     -0.166840   2 C  pz                3      0.159036   1 C  s         
    45     -0.159036   4 C  s                57      0.138421   5 H  s         
    87     -0.138421  11 H  s                62      0.128264   6 H  s         
    82     -0.128264  10 H  s                67      0.126553   7 H  s         

 Vector    8  Occ=2.000000D+00  E=-5.375657D-01  Symmetry=a'
              MO Center=  1.7D-01,  5.6D-02, -3.2D-15, r^2= 2.7D+00
   Bfn.  Coefficient  Atom+Function         Bfn.  Coefficient  Atom+Function  
  ----- ------------  ---------------      ----- ------------  ---------------
    16      0.252901   2 C  s                33      0.241316   3 O  py        
    77     -0.203355   9 H  s                72      0.190733   8 H  s         
    32     -0.148896   3 O  px               17      0.134820   2 C  s         
     2     -0.132769   1 C  s                44     -0.132769   4 C  s         
    19      0.115389   2 C  py               62     -0.115133   6 H  s         

 Vector    9  Occ=2.000000D+00  E=-4.255770D-01  Symmetry=a'
              MO Center=  2.2D-01, -5.5D-03,  5.8D-15, r^2= 2.6D+00
   Bfn.  Coefficient  Atom+Function         Bfn.  Coefficient  Atom+Function  
  ----- ------------  ---------------      ----- ------------  ---------------
    33      0.303988   3 O  py               18      0.284060   2 C  px        
    77     -0.235567   9 H  s                 6     -0.184020   1 C  pz        
    48      0.184020   4 C  pz               32     -0.153075   3 O  px        
    21      0.138534   2 C  px               57      0.132379   5 H  s         
    87      0.132379  11 H  s                36      0.119937   3 O  py        

 Vector   10  Occ=2.000000D+00  E=-4.147992D-01  Symmetry=a'
              MO Center= -1.5D-01,  1.5D-01, -2.6D-15, r^2= 2.7D+00
   Bfn.  Coefficient  Atom+Function         Bfn.  Coefficient  Atom+Function  
  ----- ------------  ---------------      ----- ------------  ---------------
    19      0.297404   2 C  py               32      0.202450   3 O  px        
    72      0.170642   8 H  s                31      0.154792   3 O  s         
     5      0.149399   1 C  py               22      0.149816   2 C  py        
    47      0.149399   4 C  py                6     -0.145830   1 C  pz        
    48      0.145830   4 C  pz               67      0.126632   7 H  s         

 Vector   11  Occ=2.000000D+00  E=-3.742881D-01  Symmetry=a"
              MO Center= -4.0D-01,  6.6D-03, -1.9D-15, r^2= 2.7D+00
   Bfn.  Coefficient  Atom+Function         Bfn.  Coefficient  Atom+Function  
  ----- ------------  ---------------      ----- ------------  ---------------
    20      0.306553   2 C  pz                4     -0.248504   1 C  px        
    46      0.248504   4 C  px               34      0.200062   3 O  pz        
    67      0.175182   7 H  s                92     -0.175182  12 H  s         
    37      0.125693   3 O  pz                5     -0.119541   1 C  py        
    23      0.119101   2 C  pz               47      0.119541   4 C  py        

 Vector   12  Occ=2.000000D+00  E=-3.574398D-01  Symmetry=a'
              MO Center= -3.3D-01,  4.6D-02,  4.0D-15, r^2= 3.5D+00
   Bfn.  Coefficient  Atom+Function         Bfn.  Coefficient  Atom+Function  
  ----- ------------  ---------------      ----- ------------  ---------------
     4      0.242929   1 C  px               46      0.242929   4 C  px        
    33     -0.227964   3 O  py               57      0.192730   5 H  s         
    87      0.192730  11 H  s                67     -0.182035   7 H  s         
    92     -0.182035  12 H  s                31     -0.175700   3 O  s         
    77      0.154846   9 H  s                 6     -0.117732   1 C  pz        

 Vector   13  Occ=2.000000D+00  E=-3.418340D-01  Symmetry=a"
              MO Center= -8.0D-01, -3.4D-01,  2.7D-14, r^2= 2.9D+00
   Bfn.  Coefficient  Atom+Function         Bfn.  Coefficient  Atom+Function  
  ----- ------------  ---------------      ----- ------------  ---------------
     5      0.290273   1 C  py               47     -0.290273   4 C  py        
    62     -0.250302   6 H  s                82      0.250302  10 H  s         
    67      0.189063   7 H  s                92     -0.189063  12 H  s         
     4     -0.131884   1 C  px               46      0.131884   4 C  px        
     8      0.121238   1 C  py               50     -0.121238   4 C  py        

 Vector   14  Occ=2.000000D+00  E=-3.101996D-01  Symmetry=a'
              MO Center= -1.2D-01, -3.1D-02, -2.0D-14, r^2= 3.2D+00
   Bfn.  Coefficient  Atom+Function         Bfn.  Coefficient  Atom+Function  
  ----- ------------  ---------------      ----- ------------  ---------------
    32      0.270813   3 O  px               19      0.252517   2 C  py        
    72      0.239901   8 H  s                 5     -0.222948   1 C  py        
    47     -0.222948   4 C  py               62      0.217987   6 H  s         
    82      0.217987  10 H  s                35      0.170890   3 O  px        
    63      0.128632   6 H  s                83      0.128632  10 H  s         

 Vector   15  Occ=2.000000D+00  E=-3.051839D-01  Symmetry=a"
              MO Center= -3.4D-01,  7.4D-02, -1.2D-14, r^2= 3.5D+00
   Bfn.  Coefficient  Atom+Function         Bfn.  Coefficient  Atom+Function  
  ----- ------------  ---------------      ----- ------------  ---------------
     6      0.298695   1 C  pz               48      0.298695   4 C  pz        
    57     -0.275118   5 H  s                87      0.275118  11 H  s         
    20     -0.239168   2 C  pz               58     -0.146499   5 H  s         
    88      0.146499  11 H  s                34     -0.145384   3 O  pz        
     9      0.130567   1 C  pz               51      0.130567   4 C  pz        

 Vector   16  Occ=2.000000D+00  E=-2.655576D-01  Symmetry=a'
              MO Center=  6.0D-01,  1.5D-01,  1.3D-15, r^2= 2.5D+00
   Bfn.  Coefficient  Atom+Function         Bfn.  Coefficient  Atom+Function  
  ----- ------------  ---------------      ----- ------------  ---------------
    32      0.354531   3 O  px               35      0.264258   3 O  px        
    33      0.243149   3 O  py               18     -0.229979   2 C  px        
    72     -0.221895   8 H  s                31      0.210499   3 O  s         
    19     -0.187060   2 C  py               77     -0.186657   9 H  s         
    73     -0.142964   8 H  s                 4      0.140800   1 C  px        

 Vector   17  Occ=2.000000D+00  E=-2.080021D-01  Symmetry=a"
              MO Center=  9.4D-01, -2.8D-02,  4.3D-18, r^2= 1.7D+00
   Bfn.  Coefficient  Atom+Function         Bfn.  Coefficient  Atom+Function  
  ----- ------------  ---------------      ----- ------------  ---------------
    34      0.583912   3 O  pz               37      0.440120   3 O  pz        
    20     -0.164377   2 C  pz                3      0.161634   1 C  s         
    45     -0.161634   4 C  s                 6      0.136764   1 C  pz        
    48      0.136764   4 C  pz                4      0.118338   1 C  px        
    46     -0.118338   4 C  px               68     -0.102559   7 H  s         

 Vector   18  Occ=0.000000D+00  E= 2.999475D-02  Symmetry=a'
              MO Center=  5.5D-02, -7.4D-01,  2.1D-14, r^2= 5.4D+00
   Bfn.  Coefficient  Atom+Function         Bfn.  Coefficient  Atom+Function  
  ----- ------------  ---------------      ----- ------------  ---------------
     3      0.786043   1 C  s                45      0.786043   4 C  s         
    78     -0.731475   9 H  s                17      0.588375   2 C  s         
    63     -0.530073   6 H  s                83     -0.530073  10 H  s         
    68     -0.454793   7 H  s                93     -0.454793  12 H  s         
    31      0.392391   3 O  s                58     -0.287604   5 H  s         

 Vector   19  Occ=0.000000D+00  E= 6.248508D-02  Symmetry=a'
              MO Center= -6.8D-02,  4.7D-01,  7.7D-15, r^2= 6.3D+00
   Bfn.  Coefficient  Atom+Function         Bfn.  Coefficient  Atom+Function  
  ----- ------------  ---------------      ----- ------------  ---------------
    73      1.158006   8 H  s                78     -0.715731   9 H  s         
     3     -0.599039   1 C  s                45     -0.599039   4 C  s         
    22     -0.587130   2 C  py               17     -0.563559   2 C  s         
    68      0.556646   7 H  s                93      0.556646  12 H  s         
    58      0.493632   5 H  s                88      0.493632  11 H  s         

 Vector   20  Occ=0.000000D+00  E= 8.622911D-02  Symmetry=a'
              MO Center= -1.8D-01, -6.5D-01, -6.3D-16, r^2= 5.4D+00
   Bfn.  Coefficient  Atom+Function         Bfn.  Coefficient  Atom+Function  
  ----- ------------  ---------------      ----- ------------  ---------------
    63      0.961858   6 H  s                83      0.961858  10 H  s         
     3     -0.795234   1 C  s                45     -0.795234   4 C  s         
    78     -0.565349   9 H  s                31      0.495542   3 O  s         
    58      0.432280   5 H  s                88      0.432280  11 H  s         
    73     -0.412587   8 H  s                17      0.410325   2 C  s         

 Vector   21  Occ=0.000000D+00  E= 9.061220D-02  Symmetry=a"
              MO Center= -6.2D-01, -3.3D-01, -2.7D-14, r^2= 7.4D+00
   Bfn.  Coefficient  Atom+Function         Bfn.  Coefficient  Atom+Function  
  ----- ------------  ---------------      ----- ------------  ---------------
     3      1.542383   1 C  s                45     -1.542383   4 C  s         
    63     -0.870955   6 H  s                83      0.870955  10 H  s         
    58     -0.778657   5 H  s                88      0.778657  11 H  s         
    68     -0.529642   7 H  s                93      0.529642  12 H  s         
     9     -0.258779   1 C  pz               51     -0.258779   4 C  pz        

 Vector   22  Occ=0.000000D+00  E= 9.819878D-02  Symmetry=a'
              MO Center= -8.3D-01,  3.5D-01,  3.0D-14, r^2= 6.4D+00
   Bfn.  Coefficient  Atom+Function         Bfn.  Coefficient  Atom+Function  
  ----- ------------  ---------------      ----- ------------  ---------------
    68      1.083292   7 H  s                93      1.083292  12 H  s         
    73     -0.790121   8 H  s                58     -0.754406   5 H  s         
    88     -0.754406  11 H  s                 7      0.678976   1 C  px        
    49      0.678976   4 C  px               17      0.640812   2 C  s         
    78     -0.445588   9 H  s                 3     -0.420795   1 C  s         

 Vector   23  Occ=0.000000D+00  E= 1.197565D-01  Symmetry=a'
              MO Center= -2.3D-01,  6.5D-01, -6.4D-16, r^2= 6.3D+00
   Bfn.  Coefficient  Atom+Function         Bfn.  Coefficient  Atom+Function  
  ----- ------------  ---------------      ----- ------------  ---------------
    73     -1.452104   8 H  s                17      1.371849   2 C  s         
    58      0.950266   5 H  s                88      0.950266  11 H  s         
    22      0.764592   2 C  py                8     -0.694274   1 C  py        
    50     -0.694274   4 C  py               63     -0.662001   6 H  s         
    83     -0.662001  10 H  s                 3     -0.499586   1 C  s         

 Vector   24  Occ=0.000000D+00  E= 1.337086D-01  Symmetry=a"
              MO Center= -3.0D-01, -2.1D-01, -2.0D-14, r^2= 7.3D+00
   Bfn.  Coefficient  Atom+Function         Bfn.  Coefficient  Atom+Function  
  ----- ------------  ---------------      ----- ------------  ---------------
    58      1.353712   5 H  s                88     -1.353712  11 H  s         
    63     -0.965757   6 H  s                83      0.965757  10 H  s         
     9      0.657514   1 C  pz               51      0.657514   4 C  pz        
     8     -0.539781   1 C  py               50      0.539781   4 C  py        
     7     -0.355305   1 C  px               49      0.355305   4 C  px        

 Vector   25  Occ=0.000000D+00  E= 1.416942D-01  Symmetry=a"
              MO Center= -1.5D+00, -3.4D-02, -2.4D-14, r^2= 5.2D+00
   Bfn.  Coefficient  Atom+Function         Bfn.  Coefficient  Atom+Function  
  ----- ------------  ---------------      ----- ------------  ---------------
    68      1.514998   7 H  s                93     -1.514998  12 H  s         
    63     -0.852028   6 H  s                83      0.852028  10 H  s         
     7      0.733374   1 C  px               49     -0.733374   4 C  px        
     8     -0.536904   1 C  py               50      0.536904   4 C  py        
    58     -0.270504   5 H  s                88      0.270504  11 H  s         

 Vector   26  Occ=0.000000D+00  E= 1.847070D-01  Symmetry=a'
              MO Center= -1.8D-01,  6.3D-02,  8.4D-15, r^2= 4.0D+00
   Bfn.  Coefficient  Atom+Function         Bfn.  Coefficient  Atom+Function  
  ----- ------------  ---------------      ----- ------------  ---------------
    21     -1.606085   2 C  px               17      1.521696   2 C  s         
     9     -1.106469   1 C  pz               51      1.106469   4 C  pz        
     3     -0.889262   1 C  s                45     -0.889262   4 C  s         
    22     -0.722300   2 C  py               78      0.674186   9 H  s         
    73      0.605841   8 H  s                36      0.400208   3 O  py        

 Vector   27  Occ=0.000000D+00  E= 1.896434D-01  Symmetry=a'
              MO Center= -1.8D-01, -1.4D-01,  5.2D-15, r^2= 3.9D+00
   Bfn.  Coefficient  Atom+Function         Bfn.  Coefficient  Atom+Function  
  ----- ------------  ---------------      ----- ------------  ---------------
    17      2.274836   2 C  s                22     -1.198566   2 C  py        
     3     -0.932120   1 C  s                45     -0.932120   4 C  s         
     9     -0.706293   1 C  pz               51      0.706293   4 C  pz        
    31     -0.687059   3 O  s                 7     -0.683566   1 C  px        
    49     -0.683566   4 C  px               35      0.581940   3 O  px        

 Vector   28  Occ=0.000000D+00  E= 2.171142D-01  Symmetry=a"
              MO Center= -3.5D-01,  8.9D-03,  5.1D-15, r^2= 3.7D+00
   Bfn.  Coefficient  Atom+Function         Bfn.  Coefficient  Atom+Function  
  ----- ------------  ---------------      ----- ------------  ---------------
    23      2.119145   2 C  pz                3      1.013595   1 C  s         
    45     -1.013595   4 C  s                 7      0.944226   1 C  px        
    49     -0.944226   4 C  px                9      0.898283   1 C  pz        
    51      0.898283   4 C  pz                8      0.701959   1 C  py        
    50     -0.701959   4 C  py               63      0.618707   6 H  s         

 Vector   29  Occ=0.000000D+00  E= 3.521882D-01  Symmetry=a'
              MO Center= -6.0D-01, -1.1D-01,  8.5D-14, r^2= 4.4D+00
   Bfn.  Coefficient  Atom+Function         Bfn.  Coefficient  Atom+Function  
  ----- ------------  ---------------      ----- ------------  ---------------
    21      0.640032   2 C  px                3      0.504906   1 C  s         
    45      0.504906   4 C  s                 9      0.464507   1 C  pz        
    51     -0.464507   4 C  pz               57      0.463619   5 H  s         
    87      0.463619  11 H  s                58     -0.435856   5 H  s         
    88     -0.435856  11 H  s                17     -0.404862   2 C  s         

 Vector   30  Occ=0.000000D+00  E= 3.916771D-01  Symmetry=a"
              MO Center= -5.0D-01,  3.3D-02,  5.7D-14, r^2= 4.5D+00
   Bfn.  Coefficient  Atom+Function         Bfn.  Coefficient  Atom+Function  
  ----- ------------  ---------------      ----- ------------  ---------------
    23     -0.532230   2 C  pz               62      0.518839   6 H  s         
    82     -0.518839  10 H  s                 8      0.513872   1 C  py        
    50     -0.513872   4 C  py                9      0.360275   1 C  pz        
    51      0.360275   4 C  pz               20      0.321008   2 C  pz        
    63     -0.315508   6 H  s                83      0.315508  10 H  s         

 Vector   31  Occ=0.000000D+00  E= 4.248356D-01  Symmetry=a'
              MO Center= -2.5D-02,  5.6D-02,  2.2D-13, r^2= 4.4D+00
   Bfn.  Coefficient  Atom+Function         Bfn.  Coefficient  Atom+Function  
  ----- ------------  ---------------      ----- ------------  ---------------
    21      0.987154   2 C  px                7     -0.742787   1 C  px        
    17      0.746273   2 C  s                49     -0.742787   4 C  px        
    31     -0.686757   3 O  s                73      0.610166   8 H  s         
    77      0.555217   9 H  s                72     -0.449823   8 H  s         
    22     -0.433611   2 C  py               67     -0.397435   7 H  s         

 Vector   32  Occ=0.000000D+00  E= 4.417579D-01  Symmetry=a"
              MO Center= -5.9D-01,  1.7D-02, -1.6D-13, r^2= 4.5D+00
   Bfn.  Coefficient  Atom+Function         Bfn.  Coefficient  Atom+Function  
  ----- ------------  ---------------      ----- ------------  ---------------
     9      0.559246   1 C  pz               51      0.559246   4 C  pz        
    67      0.540358   7 H  s                92     -0.540358  12 H  s         
     7      0.455389   1 C  px               49     -0.455389   4 C  px        
    68     -0.374797   7 H  s                93      0.374797  12 H  s         
    58      0.337312   5 H  s                88     -0.337312  11 H  s         

 Vector   33  Occ=0.000000D+00  E= 4.608900D-01  Symmetry=a'
              MO Center= -2.0D-01,  2.6D-01, -1.0D-13, r^2= 3.2D+00
   Bfn.  Coefficient  Atom+Function         Bfn.  Coefficient  Atom+Function  
  ----- ------------  ---------------      ----- ------------  ---------------
    21      0.882393   2 C  px               18     -0.697614   2 C  px        
     8     -0.384142   1 C  py               50     -0.384142   4 C  py        
    17      0.376007   2 C  s                16     -0.348523   2 C  s         
    67      0.318846   7 H  s                92      0.318846  12 H  s         
    31     -0.306647   3 O  s                78     -0.301414   9 H  s         

 Vector   34  Occ=0.000000D+00  E= 5.187072D-01  Symmetry=a'
              MO Center= -2.2D-01,  1.3D-01,  2.9D-14, r^2= 3.6D+00
   Bfn.  Coefficient  Atom+Function         Bfn.  Coefficient  Atom+Function  
  ----- ------------  ---------------      ----- ------------  ---------------
    21     -1.585100   2 C  px               17      1.444165   2 C  s         
     9     -0.927477   1 C  pz               51      0.927477   4 C  pz        
     3     -0.652831   1 C  s                45     -0.652831   4 C  s         
    31      0.628379   3 O  s                 8     -0.571549   1 C  py        
    50     -0.571549   4 C  py               18      0.495481   2 C  px        

 Vector   35  Occ=0.000000D+00  E= 5.375393D-01  Symmetry=a'
              MO Center= -2.3D-03, -2.0D-01, -3.8D-15, r^2= 4.4D+00
   Bfn.  Coefficient  Atom+Function         Bfn.  Coefficient  Atom+Function  
  ----- ------------  ---------------      ----- ------------  ---------------
    22      2.306082   2 C  py                8     -1.150599   1 C  py        
    50     -1.150599   4 C  py               78      0.764691   9 H  s         
    17     -0.732752   2 C  s                73     -0.734922   8 H  s         
     3      0.719178   1 C  s                45      0.719178   4 C  s         
    63     -0.676251   6 H  s                83     -0.676251  10 H  s         

 Vector   36  Occ=0.000000D+00  E= 5.444107D-01  Symmetry=a"
              MO Center= -4.7D-01,  1.6D-01,  3.8D-15, r^2= 4.8D+00
   Bfn.  Coefficient  Atom+Function         Bfn.  Coefficient  Atom+Function  
  ----- ------------  ---------------      ----- ------------  ---------------
    23      2.721811   2 C  pz                3      1.415955   1 C  s         
    45     -1.415955   4 C  s                 7      0.892198   1 C  px        
    49     -0.892198   4 C  px                8      0.632410   1 C  py        
    50     -0.632410   4 C  py               57     -0.571690   5 H  s         
    87      0.571690  11 H  s                58      0.494774   5 H  s         

 Vector   37  Occ=0.000000D+00  E= 5.733610D-01  Symmetry=a"
              MO Center= -2.3D-01,  2.0D-01, -4.0D-14, r^2= 4.4D+00
   Bfn.  Coefficient  Atom+Function         Bfn.  Coefficient  Atom+Function  
  ----- ------------  ---------------      ----- ------------  ---------------
    23      2.035242   2 C  pz                3      1.082727   1 C  s         
    45     -1.082727   4 C  s                 7      0.923529   1 C  px        
    49     -0.923529   4 C  px                9      0.701714   1 C  pz        
    51      0.701714   4 C  pz               20     -0.653755   2 C  pz        
     8      0.586371   1 C  py               50     -0.586371   4 C  py        

 Vector   38  Occ=0.000000D+00  E= 5.989530D-01  Symmetry=a'
              MO Center=  1.3D-01, -3.9D-01, -8.8D-15, r^2= 4.9D+00
   Bfn.  Coefficient  Atom+Function         Bfn.  Coefficient  Atom+Function  
  ----- ------------  ---------------      ----- ------------  ---------------
     7      1.196488   1 C  px               49      1.196488   4 C  px        
    68      0.855020   7 H  s                93      0.855020  12 H  s         
     8     -0.850232   1 C  py               50     -0.850232   4 C  py        
    78     -0.829884   9 H  s                21     -0.664813   2 C  px        
    77      0.652595   9 H  s                31      0.505075   3 O  s         

 Vector   39  Occ=0.000000D+00  E= 6.069872D-01  Symmetry=a'
              MO Center= -4.5D-01,  1.4D-01,  1.7D-13, r^2= 4.4D+00
   Bfn.  Coefficient  Atom+Function         Bfn.  Coefficient  Atom+Function  
  ----- ------------  ---------------      ----- ------------  ---------------
    17      1.273945   2 C  s                73     -0.762512   8 H  s         
    63     -0.667334   6 H  s                83     -0.667334  10 H  s         
    72      0.601491   8 H  s                31     -0.543096   3 O  s         
    68      0.492720   7 H  s                93      0.492720  12 H  s         
    21      0.461042   2 C  px               16     -0.410813   2 C  s         

 Vector   40  Occ=0.000000D+00  E= 6.108688D-01  Symmetry=a"
              MO Center= -6.8D-01, -4.9D-01,  3.0D-14, r^2= 4.6D+00
   Bfn.  Coefficient  Atom+Function         Bfn.  Coefficient  Atom+Function  
  ----- ------------  ---------------      ----- ------------  ---------------
    63      1.333174   6 H  s                83     -1.333174  10 H  s         
     8      1.223060   1 C  py               50     -1.223060   4 C  py        
    58     -0.954963   5 H  s                88      0.954963  11 H  s         
     7      0.723067   1 C  px               49     -0.723067   4 C  px        
     9     -0.628350   1 C  pz               51     -0.628350   4 C  pz        

 Vector   41  Occ=0.000000D+00  E= 6.224724D-01  Symmetry=a'
              MO Center= -4.2D-01, -9.3D-02, -1.5D-13, r^2= 4.5D+00
   Bfn.  Coefficient  Atom+Function         Bfn.  Coefficient  Atom+Function  
  ----- ------------  ---------------      ----- ------------  ---------------
    22      1.192312   2 C  py               73     -0.911402   8 H  s         
    68     -0.718918   7 H  s                93     -0.718918  12 H  s         
    58      0.600552   5 H  s                88      0.600552  11 H  s         
     9      0.547380   1 C  pz               51     -0.547380   4 C  pz        
     3      0.512381   1 C  s                45      0.512381   4 C  s         

 Vector   42  Occ=0.000000D+00  E= 6.304087D-01  Symmetry=a"
              MO Center= -9.6D-01, -2.6D-02, -6.9D-14, r^2= 4.8D+00
   Bfn.  Coefficient  Atom+Function         Bfn.  Coefficient  Atom+Function  
  ----- ------------  ---------------      ----- ------------  ---------------
    68      1.549642   7 H  s                93     -1.549642  12 H  s         
     7      1.072873   1 C  px               49     -1.072873   4 C  px        
     8     -1.014698   1 C  py               50      1.014698   4 C  py        
    63     -0.946496   6 H  s                83      0.946496  10 H  s         
    23     -0.579152   2 C  pz                4     -0.478562   1 C  px        

 Vector   43  Occ=0.000000D+00  E= 6.406017D-01  Symmetry=a'
              MO Center= -2.8D-01,  1.3D-02, -4.7D-14, r^2= 4.4D+00
   Bfn.  Coefficient  Atom+Function         Bfn.  Coefficient  Atom+Function  
  ----- ------------  ---------------      ----- ------------  ---------------
    22      1.385315   2 C  py               73     -1.112700   8 H  s         
    58     -0.930097   5 H  s                88     -0.930097  11 H  s         
    63      0.805309   6 H  s                83      0.805309  10 H  s         
     8      0.771996   1 C  py               50      0.771996   4 C  py        
     7      0.620447   1 C  px               49      0.620447   4 C  px        

 Vector   44  Occ=0.000000D+00  E= 6.519501D-01  Symmetry=a'
              MO Center= -3.2D-01,  2.3D-01,  3.0D-14, r^2= 5.5D+00
   Bfn.  Coefficient  Atom+Function         Bfn.  Coefficient  Atom+Function  
  ----- ------------  ---------------      ----- ------------  ---------------
    73      1.191679   8 H  s                22     -0.774249   2 C  py        
    58     -0.670977   5 H  s                88     -0.670977  11 H  s         
     9     -0.557355   1 C  pz               51      0.557355   4 C  pz        
     3      0.546377   1 C  s                45      0.546377   4 C  s         
    78      0.461204   9 H  s                63     -0.454397   6 H  s         

 Vector   45  Occ=0.000000D+00  E= 6.937701D-01  Symmetry=a"
              MO Center= -7.5D-01, -2.5D-01, -2.7D-15, r^2= 5.7D+00
   Bfn.  Coefficient  Atom+Function         Bfn.  Coefficient  Atom+Function  
  ----- ------------  ---------------      ----- ------------  ---------------
     9      1.786090   1 C  pz               51      1.786090   4 C  pz        
    58      1.206787   5 H  s                88     -1.206787  11 H  s         
    23      1.039027   2 C  pz                3     -0.798028   1 C  s         
    45      0.798028   4 C  s                63      0.674941   6 H  s         
    83     -0.674941  10 H  s                68      0.516252   7 H  s         

 Vector   46  Occ=0.000000D+00  E= 8.282862D-01  Symmetry=a'
              MO Center= -1.3D-01,  1.3D-01,  2.6D-13, r^2= 3.1D+00
   Bfn.  Coefficient  Atom+Function         Bfn.  Coefficient  Atom+Function  
  ----- ------------  ---------------      ----- ------------  ---------------
    17      0.854503   2 C  s                 3     -0.774758   1 C  s         
    45     -0.774758   4 C  s                36      0.532248   3 O  py        
    31     -0.441802   3 O  s                77      0.358113   9 H  s         
    33     -0.312503   3 O  py               35      0.292405   3 O  px        
     2      0.252039   1 C  s                44      0.252039   4 C  s         

 Vector   47  Occ=0.000000D+00  E= 8.498610D-01  Symmetry=a"
              MO Center= -3.6D-01,  4.7D-04, -1.4D-13, r^2= 3.0D+00
   Bfn.  Coefficient  Atom+Function         Bfn.  Coefficient  Atom+Function  
  ----- ------------  ---------------      ----- ------------  ---------------
    34      0.350027   3 O  pz               11     -0.278086   1 C  d -1      
    53     -0.278086   4 C  d -1             37     -0.268602   3 O  pz        
     3      0.264554   1 C  s                45     -0.264554   4 C  s         
    25      0.231956   2 C  d -1             13     -0.188582   1 C  d  1      
    55     -0.188582   4 C  d  1             27      0.171908   2 C  d  1      

 Vector   48  Occ=0.000000D+00  E= 8.989563D-01  Symmetry=a'
              MO Center= -4.0D-01,  1.4D-01,  9.9D-16, r^2= 4.0D+00
   Bfn.  Coefficient  Atom+Function         Bfn.  Coefficient  Atom+Function  
  ----- ------------  ---------------      ----- ------------  ---------------
    17      2.125705   2 C  s                 3      2.039453   1 C  s         
    45      2.039453   4 C  s                16     -1.059125   2 C  s         
     2     -0.987796   1 C  s                44     -0.987796   4 C  s         
    58     -0.580365   5 H  s                88     -0.580365  11 H  s         
    73     -0.560546   8 H  s                 9     -0.516961   1 C  pz        

 Vector   49  Occ=0.000000D+00  E= 9.600766D-01  Symmetry=a'
              MO Center=  1.4D+00, -1.2D-01, -8.8D-15, r^2= 2.7D+00
   Bfn.  Coefficient  Atom+Function         Bfn.  Coefficient  Atom+Function  
  ----- ------------  ---------------      ----- ------------  ---------------
    17      2.496516   2 C  s                35      1.655201   3 O  px        
     3     -1.380441   1 C  s                45     -1.380441   4 C  s         
    22     -1.088453   2 C  py               78     -0.953065   9 H  s         
    32     -0.625944   3 O  px               36     -0.444106   3 O  py        
    31     -0.395993   3 O  s                63      0.355068   6 H  s         

 Vector   50  Occ=0.000000D+00  E= 1.019617D+00  Symmetry=a"
              MO Center=  8.8D-01, -1.7D-01,  1.7D-14, r^2= 2.8D+00
   Bfn.  Coefficient  Atom+Function         Bfn.  Coefficient  Atom+Function  
  ----- ------------  ---------------      ----- ------------  ---------------
     3      1.417820   1 C  s                45     -1.417820   4 C  s         
    37     -1.095922   3 O  pz               23      1.039421   2 C  pz        
    34      0.758479   3 O  pz               68     -0.459138   7 H  s         
    93      0.459138  12 H  s                 2     -0.367710   1 C  s         
    44      0.367710   4 C  s                 7     -0.330516   1 C  px        

 Vector   51  Occ=0.000000D+00  E= 1.067772D+00  Symmetry=a'
              MO Center=  8.8D-01, -1.5D-01, -3.9D-15, r^2= 3.0D+00
   Bfn.  Coefficient  Atom+Function         Bfn.  Coefficient  Atom+Function  
  ----- ------------  ---------------      ----- ------------  ---------------
    17      2.147206   2 C  s                 3     -1.947365   1 C  s         
    45     -1.947365   4 C  s                36      1.425085   3 O  py        
    21     -1.050869   2 C  px               22     -0.752560   2 C  py        
    77      0.565241   9 H  s                78      0.565270   9 H  s         
     9     -0.452864   1 C  pz               51      0.452864   4 C  pz        

 Vector   52  Occ=0.000000D+00  E= 1.081936D+00  Symmetry=a"
              MO Center= -4.0D-01,  1.8D-03, -4.1D-14, r^2= 3.6D+00
   Bfn.  Coefficient  Atom+Function         Bfn.  Coefficient  Atom+Function  
  ----- ------------  ---------------      ----- ------------  ---------------
    23      1.567849   2 C  pz                3      1.134646   1 C  s         
    45     -1.134646   4 C  s                 8      0.763268   1 C  py        
    50     -0.763268   4 C  py                7      0.650477   1 C  px        
    49     -0.650477   4 C  px               58     -0.352774   5 H  s         
    88      0.352774  11 H  s                10      0.298487   1 C  d -2      

 Vector   53  Occ=0.000000D+00  E= 1.173156D+00  Symmetry=a"
              MO Center=  1.8D-01, -1.1D-01, -1.2D-14, r^2= 3.5D+00
   Bfn.  Coefficient  Atom+Function         Bfn.  Coefficient  Atom+Function  
  ----- ------------  ---------------      ----- ------------  ---------------
     3      2.404346   1 C  s                45     -2.404346   4 C  s         
    23      1.232414   2 C  pz                2     -0.696349   1 C  s         
    44      0.696349   4 C  s                81     -0.502029   9 H  pz        
    37      0.459273   3 O  pz                7      0.434106   1 C  px        
    49     -0.434106   4 C  px               62     -0.390999   6 H  s         

 Vector   54  Occ=0.000000D+00  E= 1.188473D+00  Symmetry=a'
              MO Center= -1.4D-01,  1.6D-02, -6.3D-14, r^2= 3.5D+00
   Bfn.  Coefficient  Atom+Function         Bfn.  Coefficient  Atom+Function  
  ----- ------------  ---------------      ----- ------------  ---------------
    21      1.289371   2 C  px               22     -1.103969   2 C  py        
    17     -1.053750   2 C  s                36     -0.850044   3 O  py        
     8      0.801542   1 C  py               50      0.801542   4 C  py        
    77     -0.595968   9 H  s                 7     -0.569002   1 C  px        
    49     -0.569002   4 C  px               73      0.494051   8 H  s         

 Vector   55  Occ=0.000000D+00  E= 1.224617D+00  Symmetry=a"
              MO Center= -6.8D-01,  5.6D-02, -2.0D-14, r^2= 3.4D+00
   Bfn.  Coefficient  Atom+Function         Bfn.  Coefficient  Atom+Function  
  ----- ------------  ---------------      ----- ------------  ---------------
     3      2.967275   1 C  s                45     -2.967275   4 C  s         
     2     -1.024013   1 C  s                44      1.024013   4 C  s         
    23      0.783703   2 C  pz               67     -0.562795   7 H  s         
    92      0.562795  12 H  s                 1     -0.522296   1 C  s         
    43      0.522296   4 C  s                 9      0.487733   1 C  pz        

 Vector   56  Occ=0.000000D+00  E= 1.323690D+00  Symmetry=a'
              MO Center= -1.4D-01,  1.5D-01, -1.3D-14, r^2= 3.7D+00
   Bfn.  Coefficient  Atom+Function         Bfn.  Coefficient  Atom+Function  
  ----- ------------  ---------------      ----- ------------  ---------------
    22      1.249008   2 C  py               21      0.916446   2 C  px        
    36     -0.571181   3 O  py               73     -0.540584   8 H  s         
     9      0.460872   1 C  pz               51     -0.460872   4 C  pz        
    57      0.401018   5 H  s                87      0.401018  11 H  s         
    17      0.369980   2 C  s                24     -0.364731   2 C  d -2      

 Vector   57  Occ=0.000000D+00  E= 1.355331D+00  Symmetry=a"
              MO Center=  1.6D-03, -3.4D-01,  1.8D-13, r^2= 4.0D+00
   Bfn.  Coefficient  Atom+Function         Bfn.  Coefficient  Atom+Function  
  ----- ------------  ---------------      ----- ------------  ---------------
     3      1.600083   1 C  s                45     -1.600083   4 C  s         
    23      1.557193   2 C  pz               37     -0.558416   3 O  pz        
    81      0.550095   9 H  pz               25     -0.338162   2 C  d -1      
     8      0.316955   1 C  py               50     -0.316955   4 C  py        
     2     -0.297524   1 C  s                44      0.297524   4 C  s         

 Vector   58  Occ=0.000000D+00  E= 1.358681D+00  Symmetry=a'
              MO Center= -8.6D-01, -2.6D-01, -1.7D-13, r^2= 3.9D+00
   Bfn.  Coefficient  Atom+Function         Bfn.  Coefficient  Atom+Function  
  ----- ------------  ---------------      ----- ------------  ---------------
    17      1.050084   2 C  s                 3     -0.437797   1 C  s         
    45     -0.437797   4 C  s                64      0.421667   6 H  px        
    84      0.421667  10 H  px               70     -0.392978   7 H  py        
    95     -0.392978  12 H  py               60      0.310988   5 H  py        
    90      0.310988  11 H  py               31     -0.276597   3 O  s         

 Vector   59  Occ=0.000000D+00  E= 1.372974D+00  Symmetry=a"
              MO Center= -2.0D-01, -2.9D-01, -3.9D-14, r^2= 4.1D+00
   Bfn.  Coefficient  Atom+Function         Bfn.  Coefficient  Atom+Function  
  ----- ------------  ---------------      ----- ------------  ---------------
    23      1.361773   2 C  pz                3      1.283210   1 C  s         
    45     -1.283210   4 C  s                37     -0.585148   3 O  pz        
    81      0.534132   9 H  pz               64      0.334977   6 H  px        
    84     -0.334977  10 H  px               70     -0.331157   7 H  py        
    95      0.331157  12 H  py                7      0.298296   1 C  px        

 Vector   60  Occ=0.000000D+00  E= 1.412487D+00  Symmetry=a'
              MO Center= -1.6D-01,  1.6D-01,  3.4D-14, r^2= 3.9D+00
   Bfn.  Coefficient  Atom+Function         Bfn.  Coefficient  Atom+Function  
  ----- ------------  ---------------      ----- ------------  ---------------
    17      8.003659   2 C  s                 3     -3.910927   1 C  s         
    45     -3.910927   4 C  s                16     -1.541727   2 C  s         
     9     -1.272135   1 C  pz               51      1.272135   4 C  pz        
    31     -0.994867   3 O  s                21     -0.922202   2 C  px        
    15     -0.849415   2 C  s                 7     -0.818911   1 C  px        

 Vector   61  Occ=0.000000D+00  E= 1.483750D+00  Symmetry=a'
              MO Center= -2.4D-01,  4.2D-02,  2.1D-13, r^2= 3.5D+00
   Bfn.  Coefficient  Atom+Function         Bfn.  Coefficient  Atom+Function  
  ----- ------------  ---------------      ----- ------------  ---------------
    31      1.348885   3 O  s                21     -1.337869   2 C  px        
    17      1.224317   2 C  s                 3     -0.987845   1 C  s         
    45     -0.987845   4 C  s                 7      0.676703   1 C  px        
    49      0.676703   4 C  px               16     -0.588323   2 C  s         
    24      0.515807   2 C  d -2             67      0.481853   7 H  s         

 Vector   62  Occ=0.000000D+00  E= 1.522492D+00  Symmetry=a'
              MO Center= -3.8D-01,  3.4D-02,  5.4D-13, r^2= 3.4D+00
   Bfn.  Coefficient  Atom+Function         Bfn.  Coefficient  Atom+Function  
  ----- ------------  ---------------      ----- ------------  ---------------
    22      1.696534   2 C  py                8     -1.017905   1 C  py        
    50     -1.017905   4 C  py               72     -0.837773   8 H  s         
    62     -0.564302   6 H  s                82     -0.564302  10 H  s         
    14     -0.484793   1 C  d  2             56     -0.484793   4 C  d  2      
    28     -0.424053   2 C  d  2              7      0.394759   1 C  px        

 Vector   63  Occ=0.000000D+00  E= 1.531915D+00  Symmetry=a"
              MO Center= -5.0D-01,  3.8D-03,  7.3D-13, r^2= 3.0D+00
   Bfn.  Coefficient  Atom+Function         Bfn.  Coefficient  Atom+Function  
  ----- ------------  ---------------      ----- ------------  ---------------
     3      1.050883   1 C  s                45     -1.050883   4 C  s         
     9      0.948734   1 C  pz               51      0.948734   4 C  pz        
     2     -0.535507   1 C  s                44      0.535507   4 C  s         
    20      0.420250   2 C  pz               25      0.367661   2 C  d -1      
    27     -0.334816   2 C  d  1             67     -0.330078   7 H  s         

 Vector   64  Occ=0.000000D+00  E= 1.541658D+00  Symmetry=a'
              MO Center= -3.6D-01, -5.1D-02, -6.5D-13, r^2= 3.6D+00
   Bfn.  Coefficient  Atom+Function         Bfn.  Coefficient  Atom+Function  
  ----- ------------  ---------------      ----- ------------  ---------------
    17      1.583993   2 C  s                22     -1.118150   2 C  py        
     3     -0.933190   1 C  s                45     -0.933190   4 C  s         
    21     -0.923981   2 C  px                9     -0.869843   1 C  pz        
    51      0.869843   4 C  pz               73      0.574584   8 H  s         
    79      0.564458   9 H  px               36      0.501924   3 O  py        

 Vector   65  Occ=0.000000D+00  E= 1.584678D+00  Symmetry=a"
              MO Center= -5.1D-01,  3.7D-02, -4.8D-13, r^2= 3.9D+00
   Bfn.  Coefficient  Atom+Function         Bfn.  Coefficient  Atom+Function  
  ----- ------------  ---------------      ----- ------------  ---------------
    23      1.855322   2 C  pz                7      0.969979   1 C  px        
     8      0.972908   1 C  py               49     -0.969979   4 C  px        
    50     -0.972908   4 C  py                3      0.736460   1 C  s         
    45     -0.736460   4 C  s                62      0.462364   6 H  s         
    82     -0.462364  10 H  s                27      0.422152   2 C  d  1      

 Vector   66  Occ=0.000000D+00  E= 1.590112D+00  Symmetry=a'
              MO Center= -1.8D-01,  9.7D-02,  9.4D-14, r^2= 3.0D+00
   Bfn.  Coefficient  Atom+Function         Bfn.  Coefficient  Atom+Function  
  ----- ------------  ---------------      ----- ------------  ---------------
    22      0.699418   2 C  py                3     -0.583422   1 C  s         
    45     -0.583422   4 C  s                21      0.507228   2 C  px        
    74     -0.485740   8 H  px                2      0.455330   1 C  s         
    44      0.455330   4 C  s                72     -0.437985   8 H  s         
    30     -0.415368   3 O  s                26     -0.398706   2 C  d  0      

 Vector   67  Occ=0.000000D+00  E= 1.625871D+00  Symmetry=a"
              MO Center= -6.7D-01, -1.6D-01, -2.2D-13, r^2= 3.8D+00
   Bfn.  Coefficient  Atom+Function         Bfn.  Coefficient  Atom+Function  
  ----- ------------  ---------------      ----- ------------  ---------------
     7      0.888517   1 C  px               49     -0.888517   4 C  px        
     3      0.493240   1 C  s                45     -0.493240   4 C  s         
    67      0.472333   7 H  s                92     -0.472333  12 H  s         
     8     -0.392865   1 C  py               50      0.392865   4 C  py        
    20      0.364935   2 C  pz               62     -0.311151   6 H  s         

 Vector   68  Occ=0.000000D+00  E= 1.643940D+00  Symmetry=a'
              MO Center= -5.0D-01,  2.0D-01,  4.2D-11, r^2= 3.5D+00
   Bfn.  Coefficient  Atom+Function         Bfn.  Coefficient  Atom+Function  
  ----- ------------  ---------------      ----- ------------  ---------------
    21      0.885368   2 C  px               31     -0.686137   3 O  s         
    16      0.512566   2 C  s                17     -0.514412   2 C  s         
    13      0.450076   1 C  d  1             55     -0.450076   4 C  d  1      
    74     -0.404499   8 H  px                3      0.388677   1 C  s         
    45      0.388677   4 C  s                57     -0.360669   5 H  s         

 Vector   69  Occ=0.000000D+00  E= 1.644224D+00  Symmetry=a"
              MO Center= -3.5D-01,  1.1D-01, -4.2D-11, r^2= 3.8D+00
   Bfn.  Coefficient  Atom+Function         Bfn.  Coefficient  Atom+Function  
  ----- ------------  ---------------      ----- ------------  ---------------
    23      1.158027   2 C  pz                9      0.860965   1 C  pz        
    51      0.860965   4 C  pz                3      0.677566   1 C  s         
    45     -0.677566   4 C  s                76     -0.514223   8 H  pz        
    57      0.393242   5 H  s                87     -0.393242  11 H  s         
    12     -0.338012   1 C  d  0             54      0.338012   4 C  d  0      

 Vector   70  Occ=0.000000D+00  E= 1.661936D+00  Symmetry=a'
              MO Center= -3.1D-01,  3.8D-01, -2.2D-13, r^2= 3.5D+00
   Bfn.  Coefficient  Atom+Function         Bfn.  Coefficient  Atom+Function  
  ----- ------------  ---------------      ----- ------------  ---------------
     8      0.592835   1 C  py               50      0.592835   4 C  py        
    17     -0.568114   2 C  s                22      0.541002   2 C  py        
    28     -0.478043   2 C  d  2             60     -0.429264   5 H  py        
    90     -0.429264  11 H  py               21      0.416244   2 C  px        
    72     -0.413080   8 H  s                 3      0.387160   1 C  s         

 Vector   71  Occ=0.000000D+00  E= 1.730474D+00  Symmetry=a"
              MO Center= -2.6D-01,  2.3D-01,  1.9D-13, r^2= 3.6D+00
   Bfn.  Coefficient  Atom+Function         Bfn.  Coefficient  Atom+Function  
  ----- ------------  ---------------      ----- ------------  ---------------
     3      0.970678   1 C  s                45     -0.970678   4 C  s         
    23      0.887227   2 C  pz               76     -0.594890   8 H  pz        
    63     -0.432094   6 H  s                83      0.432094  10 H  s         
    27     -0.335990   2 C  d  1             11     -0.329777   1 C  d -1      
    53     -0.329777   4 C  d -1             61      0.330597   5 H  pz        

 Vector   72  Occ=0.000000D+00  E= 1.757152D+00  Symmetry=a'
              MO Center= -1.6D-02, -2.3D-01, -2.0D-13, r^2= 3.3D+00
   Bfn.  Coefficient  Atom+Function         Bfn.  Coefficient  Atom+Function  
  ----- ------------  ---------------      ----- ------------  ---------------
    17      2.521441   2 C  s                22     -2.130494   2 C  py        
     3     -1.441563   1 C  s                45     -1.441563   4 C  s         
    16     -1.155485   2 C  s                31     -1.141005   3 O  s         
     7     -0.717609   1 C  px               49     -0.717609   4 C  px        
     8      0.673351   1 C  py               50      0.673351   4 C  py        

 Vector   73  Occ=0.000000D+00  E= 1.809587D+00  Symmetry=a'
              MO Center= -3.8D-01, -1.1D-01, -5.6D-16, r^2= 3.4D+00
   Bfn.  Coefficient  Atom+Function         Bfn.  Coefficient  Atom+Function  
  ----- ------------  ---------------      ----- ------------  ---------------
    17      2.535913   2 C  s                 3     -1.197229   1 C  s         
    45     -1.197229   4 C  s                 7     -1.017226   1 C  px        
    49     -1.017226   4 C  px               26      0.720175   2 C  d  0      
    36     -0.494482   3 O  py               64      0.439314   6 H  px        
    84      0.439314  10 H  px               58      0.377018   5 H  s         

 Vector   74  Occ=0.000000D+00  E= 1.846966D+00  Symmetry=a"
              MO Center= -7.9D-01, -1.1D-01, -1.0D-13, r^2= 3.5D+00
   Bfn.  Coefficient  Atom+Function         Bfn.  Coefficient  Atom+Function  
  ----- ------------  ---------------      ----- ------------  ---------------
     3      1.625198   1 C  s                45     -1.625198   4 C  s         
     9      1.455772   1 C  pz               51      1.455772   4 C  pz        
    23      1.191623   2 C  pz               27      0.651529   2 C  d  1      
    58      0.650621   5 H  s                88     -0.650621  11 H  s         
    71     -0.555737   7 H  pz               96     -0.555737  12 H  pz        

 Vector   75  Occ=0.000000D+00  E= 1.887398D+00  Symmetry=a'
[...]
           3     0.02419    -0.00782     0.00770    -0.09225     0.07584    -0.00528
           4     0.16365    -0.09623    -0.00000     0.00000    -0.01137     0.05369
           5     0.05389     0.09804    -0.00000     0.00000     0.00462     0.05363
           6     0.00000     0.00000     0.11419     0.09103    -0.00000    -0.00000
           7    -0.05445    -0.01841     0.00000    -0.00000    -0.00521    -0.02065
           8     0.02230    -0.02710     0.00000    -0.00000    -0.01144    -0.05066
           9    -0.00000     0.00000    -0.00795    -0.00444    -0.00000     0.00000
          10    -0.06437     0.02564    -0.02512     0.03134     0.04750    -0.02171
          11    -0.05202    -0.05470    -0.05008     0.00631     0.02545    -0.01128
          12    -0.02419     0.00782     0.00770    -0.09225    -0.07584     0.00528
          13     0.10719    -0.07305    -0.14063     0.24836    -0.28504    -0.05567
          14     0.08168     0.16133    -0.13382     0.09625    -0.11247     0.00656
          15     0.16597     0.01605    -0.16800     0.13177    -0.19004    -0.02829
          16     0.03580    -0.09647    -0.11886     0.06049    -0.18690     0.19792
          17    -0.04722    -0.03573     0.04475    -0.01495     0.03717    -0.01338
          18    -0.26743    -0.03113    -0.05501     0.29021    -0.26012     0.04080
          19    -0.01013     0.07473    -0.06372    -0.03745    -0.00663     0.05898
          20     0.04786     0.11597    -0.19117     0.03291    -0.16406     0.19829
          21    -0.21494     0.07013    -0.14585     0.32714    -0.34108    -0.04118
          22     0.24621     0.47063     0.00000    -0.00000    -0.09248    -0.67147
          23     0.05346     0.08846    -0.00000     0.00000     0.00359     0.07627
          24     0.00000    -0.00000    -0.68258    -0.30716     0.00000    -0.00000
          25    -0.06347     0.54636    -0.00000     0.00000     0.13660     0.47437
          26     0.02499    -0.00606    -0.00000    -0.00000    -0.00428    -0.02510
          27     0.00000     0.00000     0.00345    -0.00751     0.00000     0.00000
          28     0.03580    -0.09647     0.11886    -0.06049    -0.18690     0.19792
          29    -0.04722    -0.03573    -0.04475     0.01495     0.03717    -0.01338
          30     0.26742     0.03113    -0.05501     0.29021     0.26013    -0.04080
          31     0.10720    -0.07305     0.14063    -0.24836    -0.28504    -0.05567
          32     0.08168     0.16133     0.13382    -0.09625    -0.11247     0.00656
          33    -0.16597    -0.01605    -0.16800     0.13177     0.19004     0.02829
          34    -0.01013     0.07473     0.06372     0.03745    -0.00663     0.05898
          35     0.04786     0.11597     0.19117    -0.03291    -0.16406     0.19830
          36     0.21494    -0.07013    -0.14585     0.32714     0.34108     0.04117

                   25          26          27          28          29          30
 
 P.Frequency     1400.92     1405.62     1422.36     1428.27     2953.43     2957.94
 
           1    -0.01849    -0.03060     0.00919    -0.01447     0.01556     0.01482
           2     0.03157    -0.01544     0.01432     0.02052     0.02517     0.02601
           3     0.00627     0.00137    -0.02096     0.01349     0.02217     0.02042
           4     0.00000     0.00000     0.04194    -0.04261    -0.00000    -0.00236
           5     0.00000    -0.00000     0.05156     0.03008    -0.00001    -0.02382
           6    -0.00481     0.05413     0.00000     0.00000    -0.00257     0.00000
           7    -0.00000     0.00000    -0.01413     0.00133     0.00000     0.00062
           8    -0.00000    -0.00000    -0.02317    -0.00657     0.00000     0.00078
           9    -0.00007    -0.00435    -0.00000    -0.00000     0.00003    -0.00000
          10     0.01848     0.03060     0.00919    -0.01447    -0.01556     0.01482
          11    -0.03157     0.01544     0.01432     0.02052    -0.02516     0.02601
          12     0.00627     0.00136     0.02096    -0.01349     0.02216    -0.02043
          13     0.24965    -0.16512     0.25252     0.15748     0.15217     0.13517
          14    -0.42557    -0.13118     0.02429    -0.43660     0.10208     0.08941
          15    -0.00586    -0.13948     0.14326    -0.05984    -0.23534    -0.21259
          16     0.09358     0.44527    -0.35366     0.18686    -0.01742    -0.01657
          17     0.01892    -0.02831     0.02293     0.01323    -0.52170    -0.51503
          18    -0.35802    -0.03281    -0.03960    -0.37295    -0.00335    -0.00590
          19    -0.06875     0.13295    -0.14426    -0.01258    -0.32021    -0.29117
          20    -0.09421     0.41188    -0.36876     0.03715     0.12525     0.11260
          21     0.28786    -0.05215     0.16463     0.26007    -0.01309    -0.01396
          22    -0.00000    -0.00000    -0.24074     0.08216     0.00000     0.00793
          23     0.00000    -0.00000     0.06481     0.03227     0.00006     0.29054
          24     0.06811    -0.14347    -0.00000    -0.00000     0.00500    -0.00000
          25     0.00000     0.00000     0.23762     0.08519     0.00000     0.00266
          26    -0.00000    -0.00000    -0.00885    -0.00248    -0.00000    -0.01263
          27    -0.00689    -0.01570    -0.00000    -0.00000     0.00078     0.00000
          28    -0.09358    -0.44526    -0.35367     0.18686     0.01742    -0.01657
          29    -0.01892     0.02831     0.02293     0.01323     0.52164    -0.51510
          30    -0.35802    -0.03281     0.03960     0.37295    -0.00335     0.00590
          31    -0.24965     0.16512     0.25252     0.15748    -0.15216     0.13520
          32     0.42557     0.13118     0.02429    -0.43660    -0.10207     0.08942
          33    -0.00586    -0.13948    -0.14327     0.05984    -0.23532     0.21263
          34     0.06875    -0.13295    -0.14426    -0.01258     0.32019    -0.29122
          35     0.09422    -0.41187    -0.36877     0.03715    -0.12524     0.11261
          36     0.28786    -0.05215    -0.16463    -0.26007    -0.01309     0.01397

                   31          32          33          34          35          36
 
 P.Frequency     2969.50     3033.51     3040.49     3064.45     3066.01     3622.98
 
           1     0.00865     0.02652     0.02527     0.04926    -0.04917     0.00008
           2    -0.00457    -0.05264    -0.05163     0.01325    -0.01217    -0.00062
           3     0.01160     0.01566     0.01483    -0.03586     0.03591    -0.00025
           4     0.00209     0.00000     0.00029    -0.00000    -0.00266     0.00120
           5     0.07408     0.00000    -0.02063    -0.00000    -0.00407     0.00347
           6    -0.00000    -0.00085    -0.00000    -0.00145     0.00000     0.00000
           7    -0.00129    -0.00000    -0.00007     0.00000     0.00068    -0.00316
           8    -0.00087    -0.00000     0.00106    -0.00000    -0.00005     0.06010
           9    -0.00000     0.00012     0.00000     0.00049    -0.00000    -0.00000
          10     0.00865    -0.02652     0.02527    -0.04926    -0.04916     0.00008
          11    -0.00457     0.05264    -0.05162    -0.01325    -0.01217    -0.00062
          12    -0.01160     0.01566    -0.01483    -0.03586    -0.03591     0.00025
          13     0.08651     0.11288     0.10592    -0.28422     0.28196    -0.00170
          14     0.04998     0.05376     0.05098    -0.18086     0.17871    -0.00028
          15    -0.13060    -0.16878    -0.15908     0.46225    -0.45948     0.00113
          16     0.00000     0.02082     0.02234     0.00659    -0.00631    -0.00001
          17    -0.06058     0.42163     0.42735    -0.09854     0.09289     0.00303
          18    -0.00076     0.00743     0.01106    -0.00770     0.00946    -0.00213
          19    -0.18421    -0.45244    -0.42957    -0.31263     0.31911     0.00412
          20     0.06636     0.15605     0.14738     0.12070    -0.12416    -0.00250
          21    -0.00388    -0.01941    -0.02105    -0.02247     0.02394     0.00146
          22    -0.02180    -0.00000     0.00564     0.00000     0.00275    -0.00695
          23    -0.88459    -0.00001     0.21213     0.00001     0.04359    -0.01503
          24     0.00000     0.00142    -0.00000     0.00056    -0.00000    -0.00000
          25     0.00679     0.00000    -0.00707    -0.00000    -0.00067     0.03614
          26     0.01365     0.00000    -0.00533     0.00000     0.00065    -0.96587
          27     0.00000    -0.00451     0.00000    -0.00132     0.00000    -0.00000
          28     0.00000    -0.02082     0.02234    -0.00659    -0.00631    -0.00001
          29    -0.06052    -0.42163     0.42734     0.09855     0.09288     0.00302
          30     0.00076     0.00743    -0.01106    -0.00770    -0.00946     0.00213
          31     0.08650    -0.11288     0.10592     0.28424     0.28195    -0.00170
          32     0.04998    -0.05376     0.05098     0.18087     0.17871    -0.00027
          33     0.13059    -0.16878     0.15907     0.46227     0.45945    -0.00113
          34    -0.18419     0.45243    -0.42958     0.31265     0.31910     0.00412
          35     0.06635    -0.15605     0.14739    -0.12071    -0.12416    -0.00250
          36     0.00388    -0.01941     0.02105    -0.02247    -0.02393    -0.00146



 ----------------------------------------------------------------------------
 Normal Eigenvalue ||    Projected Derivative Dipole Moments (debye/angs)
  Mode   [cm**-1]  ||      [d/dqX]             [d/dqY]           [d/dqZ]
 ------ ---------- || ------------------ ------------------ -----------------
    1       -0.000 ||       0.039              -0.048            -0.082
    2        0.000 ||      -0.092               0.115             0.002
    3        0.000 ||      -0.000               0.000            -0.039
    4        0.000 ||      -0.000               0.000             0.073
    5        0.000 ||       0.001              -0.002             0.051
    6        0.000 ||       0.046              -0.057             0.073
    7      229.124 ||      -0.000               0.000            -0.223
    8      266.661 ||      -0.066               0.051             0.000
    9      303.940 ||       0.000               0.000            -1.377
   10      346.525 ||       0.041               0.058             0.000
   11      416.247 ||       0.000              -0.000             0.861
   12      456.539 ||       0.213              -0.178            -0.000
   13      805.776 ||      -0.360               0.010             0.000
   14      884.950 ||       0.000              -0.000             0.123
   15      898.266 ||       0.000              -0.000            -0.111
   16      942.028 ||       0.559              -0.053             0.000
   17     1046.332 ||      -1.283               0.417             0.000
   18     1117.972 ||       0.000               0.000            -0.597
   19     1143.137 ||       0.932              -0.074             0.000
   20     1265.627 ||       0.243              -0.026            -0.000
   21     1295.619 ||      -0.000               0.000             0.339
   22     1330.335 ||       0.000              -0.000             0.704
   23     1338.796 ||      -0.135              -0.215             0.000
   24     1368.629 ||       1.032               0.064            -0.000
   25     1400.923 ||       0.000               0.000             0.080
   26     1405.623 ||       0.000               0.000            -0.051
   27     1422.361 ||      -0.384               0.440             0.000
   28     1428.267 ||      -0.228               0.390            -0.000
   29     2953.435 ||       0.000              -0.000             0.647
   30     2957.939 ||       0.373               0.355            -0.000
   31     2969.499 ||       0.229               0.776             0.000
   32     3033.511 ||       0.000               0.000             0.331
   33     3040.493 ||       0.516              -1.101             0.000
   34     3064.445 ||      -0.000              -0.000            -0.576
   35     3066.008 ||      -0.744              -0.221             0.000
   36     3622.981 ||       0.168              -0.338            -0.000
 ----------------------------------------------------------------------------



  
  
 ----------------------------------------------------------------------------
 Normal Eigenvalue ||           Projected Infra Red Intensities
  Mode   [cm**-1]  || [atomic units] [(debye/angs)**2] [(KM/mol)] [arbitrary]
 ------ ---------- || -------------- ----------------- ---------- -----------
    1       -0.000 ||    0.000461           0.011         0.449       0.301
    2        0.000 ||    0.000936           0.022         0.913       0.612
    3        0.000 ||    0.000065           0.002         0.064       0.043
    4        0.000 ||    0.000229           0.005         0.223       0.150
    5        0.000 ||    0.000113           0.003         0.110       0.074
    6        0.000 ||    0.000464           0.011         0.453       0.303
    7      229.124 ||    0.002158           0.050         2.103       1.410
    8      266.661 ||    0.000299           0.007         0.291       0.195
    9      303.940 ||    0.082128           1.895        80.062      53.668
   10      346.525 ||    0.000220           0.005         0.214       0.144
   11      416.247 ||    0.032142           0.742        31.334      21.004
   12      456.539 ||    0.003332           0.077         3.248       2.177
   13      805.776 ||    0.005621           0.130         5.479       3.673
   14      884.950 ||    0.000657           0.015         0.640       0.429
   15      898.266 ||    0.000532           0.012         0.518       0.347
   16      942.028 ||    0.013671           0.315        13.327       8.933
   17     1046.332 ||    0.078838           1.819        76.855      51.518
   18     1117.972 ||    0.015472           0.357        15.082      10.110
   19     1143.137 ||    0.037847           0.873        36.895      24.732
   20     1265.627 ||    0.002597           0.060         2.532       1.697
   21     1295.619 ||    0.004974           0.115         4.849       3.251
   22     1330.335 ||    0.021495           0.496        20.954      14.046
   23     1338.796 ||    0.002782           0.064         2.712       1.818
   24     1368.629 ||    0.046343           1.069        45.177      30.284
   25     1400.923 ||    0.000279           0.006         0.272       0.182
   26     1405.623 ||    0.000114           0.003         0.111       0.075
   27     1422.361 ||    0.014800           0.341        14.428       9.672
   28     1428.267 ||    0.008835           0.204         8.612       5.773
   29     2953.435 ||    0.018117           0.418        17.662      11.839
   30     2957.939 ||    0.011480           0.265        11.192       7.502
   31     2969.499 ||    0.028370           0.655        27.656      18.539
   32     3033.511 ||    0.004740           0.109         4.621       3.098
   33     3040.493 ||    0.064111           1.479        62.499      41.895
   34     3064.445 ||    0.014393           0.332        14.031       9.406
   35     3066.008 ||    0.026102           0.602        25.446      17.057
   36     3622.981 ||    0.006189           0.143         6.034       4.045
 ----------------------------------------------------------------------------



 vib:animation  F

 Task  times  cpu:        0.0s     wall:        0.0s


                                NWChem Input Module
                                -------------------


 Summary of allocated global arrays
-----------------------------------
  No active global arrays


MA_summarize_allocated_blocks: starting scan ...
MA_summarize_allocated_blocks: scan completed: 0 heap blocks, 0 stack blocks
MA usage statistics:

	allocation statistics:
					      heap	     stack
					      ----	     -----
	current number of blocks	         0	         0
	maximum number of blocks	        25	        57
	current total bytes		         0	         0
	maximum total bytes		   1560368	 279511448
	maximum total K-bytes		      1561	    279512
	maximum total M-bytes		         2	       280


                                     CITATION
                                     --------
                Please cite the following reference when publishing
                           results obtained with NWChem:

          E. Apra, E. J. Bylaska, W. A. de Jong, N. Govind, K. Kowalski,
       T. P. Straatsma, M. Valiev, H. J. J. van Dam, Y. Alexeev, J. Anchell,
       V. Anisimov, F. W. Aquino, R. Atta-Fynn, J. Autschbach, N. P. Bauman,
     J. C. Becca, D. E. Bernholdt, K. Bhaskaran-Nair, S. Bogatko, P. Borowski,
         J. Boschen, J. Brabec, A. Bruner, E. Cauet, Y. Chen, G. N. Chuev,
      C. J. Cramer, J. Daily, M. J. O. Deegan, T. H. Dunning Jr., M. Dupuis,
   K. G. Dyall, G. I. Fann, S. A. Fischer, A. Fonari, H. Fruchtl, L. Gagliardi,
      J. Garza, N. Gawande, S. Ghosh, K. Glaesemann, A. W. Gotz, J. Hammond,
       V. Helms, E. D. Hermes, K. Hirao, S. Hirata, M. Jacquelin, L. Jensen,
   B. G. Johnson, H. Jonsson, R. A. Kendall, M. Klemm, R. Kobayashi, V. Konkov,
      S. Krishnamoorthy, M. Krishnan, Z. Lin, R. D. Lins, R. J. Littlefield,
      A. J. Logsdail, K. Lopata, W. Ma, A. V. Marenich, J. Martin del Campo,
   D. Mejia-Rodriguez, J. E. Moore, J. M. Mullin, T. Nakajima, D. R. Nascimento,
    J. A. Nichols, P. J. Nichols, J. Nieplocha, A. Otero-de-la-Roza, B. Palmer,
    A. Panyala, T. Pirojsirikul, B. Peng, R. Peverati, J. Pittner, L. Pollack,
   R. M. Richard, P. Sadayappan, G. C. Schatz, W. A. Shelton, D. W. Silverstein,
   D. M. A. Smith, T. A. Soares, D. Song, M. Swart, H. L. Taylor, G. S. Thomas,
            V. Tipparaju, D. G. Truhlar, K. Tsemekhman, T. Van Voorhis,
      A. Vazquez-Mayagoitia, P. Verma, O. Villa, A. Vishnu, K. D. Vogiatzis,
        D. Wang, J. H. Weare, M. J. Williamson, T. L. Windus, K. Wolinski,
        A. T. Wong, Q. Wu, C. Yang, Q. Yu, M. Zacharias, Z. Zhang, Y. Zhao,
                                and R. J. Harrison
                        "NWChem: Past, present, and future
                         J. Chem. Phys. 152, 184102 (2020)
                               doi:10.1063/5.0004997

                                      AUTHORS
                                      -------
  E. Apra, E. J. Bylaska, N. Govind, K. Kowalski, M. Valiev, D. Mejia-Rodriguez,
       A. Kunitsa, N. P. Bauman, A. Panyala, W. A. de Jong, T. P. Straatsma,
        H. J. J. van Dam, D. Wang, T. L. Windus, J. Hammond, J. Autschbach,
    K. Bhaskaran-Nair, J. Brabec, K. Lopata, S. A. Fischer, S. Krishnamoorthy,
     M. Jacquelin, W. Ma, M. Klemm, O. Villa, Y. Chen, V. Anisimov, F. Aquino,
    S. Hirata, M. T. Hackler, Eric Hermes, L. Jensen, J. E. Moore, J. C. Becca,
      V. Konjkov, T. Risthaus, M. Malagoli, A. Marenich, A. Otero-de-la-Roza,
        J. Mullin, P. Nichols, R. Peverati, J. Pittner, Y. Zhao, P.-D. Fan,
        A. Fonari, M. J. Williamson, R. J. Harrison, J. R. Rehr, M. Dupuis,
     D. Silverstein, D. M. A. Smith, J. Nieplocha, V. Tipparaju, M. Krishnan,
     B. E. Van Kuiken, A. Vazquez-Mayagoitia, M. Swart, Q. Wu, T. Van Voorhis,
     A. A. Auer, M. Nooijen, L. D. Crosby, E. Brown, G. Cisneros, G. I. Fann,
   H. Fruchtl, J. Garza, K. Hirao, R. A. Kendall, J. A. Nichols, K. Tsemekhman,
    K. Wolinski, J. Anchell, D. E. Bernholdt, P. Borowski, T. Clark, D. Clerc,
   H. Dachsel, M. J. O. Deegan, K. Dyall, D. Elwood, E. Glendening, M. Gutowski,
   A. C. Hess, J. Jaffe, B. G. Johnson, J. Ju, R. Kobayashi, R. Kutteh, Z. Lin,
   R. Littlefield, X. Long, B. Meng, T. Nakajima, S. Niu, L. Pollack, M. Rosing,
   K. Glaesemann, G. Sandrone, M. Stave, H. Taylor, G. Thomas, J. H. van Lenthe,
                               A. T. Wong, Z. Zhang.

 Total times  cpu:     2873.9s     wall:     2946.3s
