 argument  1 = /home/hvandam/nwchem-1-srp-hpc/QA/tests/ZSM-5/nwc/2-propyl+dft-pbe-thermo.nw



============================== echo of input deck ==============================
echo
start 2-propyl-dat

memory heap 100 mb stack 500 mb global 1024 mb

geometry
  #load ../xyz/2-propyl+.xyz
  load 2-propyl+.xyz
end

charge +1

basis "cc-pvdz" spherical
  * library cc-pvdz
end
basis "cc-pvtz" spherical
  * library cc-pvtz
end
basis "cc-pvqz" spherical
  * library cc-pvqz
end
basis "cc-pv5z" spherical
  * library cc-pv5z
end
basis "cc-pv6z" spherical
  * library cc-pv6z
end

dft
  direct
  # select PBE functional following https://doi.org/10.1002/aic.15517
  xc xpbe96 cpbe96
  convergence energy 1e-8 density 1e-7 gradient 1e-6
end

set int:txs:limxmem              50000000

set "ao basis" "cc-pvdz"
task dft optimize
task dft frequencies numerical
vib
  reuse
  temp 9 198.15 298.15 398.15 498.15 598.15 698.15 798.15 898.15 998.15
end
task dft frequencies numerical

set "ao basis" "cc-pvtz"
task dft optimize
task dft frequencies numerical
vib
  reuse
  temp 9 198.15 298.15 398.15 498.15 598.15 698.15 798.15 898.15 998.15
end
task dft frequencies numerical

set "ao basis" "cc-pvqz"
task dft optimize
task dft frequencies numerical
vib
  reuse
  temp 9 198.15 298.15 398.15 498.15 598.15 698.15 798.15 898.15 998.15
end
task dft frequencies numerical

#set "ao basis" "cc-pv5z"
#task dft optimize

#set "ao basis" "cc-pv6z"
#task dft optimize
================================================================================


                                         
                                         


             Northwest Computational Chemistry Package (NWChem) 7.0.1
             --------------------------------------------------------


                    Environmental Molecular Sciences Laboratory
                       Pacific Northwest National Laboratory
                                Richland, WA 99352

                              Copyright (c) 1994-2020
                       Pacific Northwest National Laboratory
                            Battelle Memorial Institute

             NWChem is an open-source computational chemistry package
                        distributed under the terms of the
                      Educational Community License (ECL) 2.0
             A copy of the license is included with this distribution
                              in the LICENSE.TXT file

                                  ACKNOWLEDGMENT
                                  --------------

            This software and its documentation were developed at the
            EMSL at Pacific Northwest National Laboratory, a multiprogram
            national laboratory, operated for the U.S. Department of Energy
            by Battelle under Contract Number DE-AC05-76RL01830. Support
            for this work was provided by the Department of Energy Office
            of Biological and Environmental Research, Office of Basic
            Energy Sciences, and the Office of Advanced Scientific Computing.


           Job information
           ---------------

    hostname        = node005
    program         = /home/hvandam/nwchem-1-srp-hpc/bin/LINUX64/nwchem
    date            = Thu Mar  9 15:44:11 2023

    compiled        = Tue_Mar_07_06:00:48_2023
    source          = /home/hvandam/nwchem-1-srp-hpc
    nwchem branch   = 7.0.0
    nwchem revision = nwchem_on_git-4102-gb5ef8e9
    ga revision     = 5.8.1
    use scalapack   = F
    input           = /home/hvandam/nwchem-1-srp-hpc/QA/tests/ZSM-5/nwc/2-propyl+dft-pbe-thermo.nw
    prefix          = 2-propyl-dat.
    data base       = ./2-propyl-dat.db
    status          = startup
    nproc           =       16
    time left       =     -1s



           Memory information
           ------------------

    heap     =   13107194 doubles =    100.0 Mbytes
    stack    =   65535999 doubles =    500.0 Mbytes
    global   =  134217728 doubles =   1024.0 Mbytes (distinct from heap & stack)
    total    =  212860921 doubles =   1624.0 Mbytes
    verify   = yes
    hardfail = no 


           Directory information
           ---------------------

  0 permanent = .
  0 scratch   = .




                                NWChem Input Module
                                -------------------



 Scaling coordinates for geometry "geometry" by  1.889725989
 (inverse scale =  0.529177249)

 CS  symmetry detected

          ------
          auto-z
          ------
  no constraints, skipping    0.0000000000000000     
  no constraints, skipping    0.0000000000000000     


                             Geometry "geometry" -> ""
                             -------------------------

 Output coordinates in angstroms (scale by  1.889725989 to convert to a.u.)

  No.       Tag          Charge          X              Y              Z
 ---- ---------------- ---------- -------------- -------------- --------------
    1 C                    6.0000    -0.21356779     0.00139453    -1.26953012
    2 C                    6.0000     0.62439774     0.13394763     0.00000000
    3 C                    6.0000    -0.21356779     0.00139453     1.26953012
    4 H                    1.0000     0.41753976     0.11227380    -2.16023931
    5 H                    1.0000    -0.99412056     0.77810968    -1.30013059
    6 H                    1.0000    -0.71453025    -0.97595482    -1.31565667
    7 H                    1.0000     1.39864913    -0.64927747     0.00000000
    8 H                    1.0000    -0.99412056     0.77810968     1.30013059
    9 H                    1.0000     0.41753976     0.11227380     2.16023931
   10 H                    1.0000    -0.71453025    -0.97595482     1.31565667

      Atomic Mass 
      ----------- 

      C                 12.000000
      H                  1.007825


 Effective nuclear repulsion energy (a.u.)      75.1206540359

            Nuclear Dipole moment (a.u.) 
            ----------------------------
        X                 Y               Z
 ---------------- ---------------- ----------------
    -0.0000000000     0.0000000000    -0.0000000000

      Symmetry information
      --------------------

 Group name             Cs        
 Group number              2
 Group order               2
 No. of unique centers     6

      Symmetry unique atoms

     1    2    4    5    6    7



                                Z-matrix (autoz)
                                -------- 

 Units are Angstrom for bonds and degrees for angles

      Type          Name      I     J     K     L     M      Value
      ----------- --------  ----- ----- ----- ----- ----- ----------
    1 Stretch                  1     2                       1.52691
    2 Stretch                  1     4                       1.09725
    3 Stretch                  1     5                       1.10158
    4 Stretch                  1     6                       1.09923
    5 Stretch                  2     3                       1.52691
    6 Stretch                  2     7                       1.10132
    7 Stretch                  3     8                       1.10158
    8 Stretch                  3     9                       1.09725
    9 Stretch                  3    10                       1.09923
   10 Bend                     1     2     3               112.49303
   11 Bend                     1     2     7               108.90976
   12 Bend                     2     1     4               110.51826
   13 Bend                     2     1     5               110.53318
   14 Bend                     2     1     6               111.23438
   15 Bend                     2     3     8               110.53318
   16 Bend                     2     3     9               110.51826
   17 Bend                     2     3    10               111.23438
   18 Bend                     3     2     7               108.90976
   19 Bend                     4     1     5               108.28548
   20 Bend                     4     1     6               108.53678
   21 Bend                     5     1     6               107.62710
   22 Bend                     8     3     9               108.28548
   23 Bend                     8     3    10               107.62710
   24 Bend                     9     3    10               108.53678
   25 Torsion                  1     2     3     8         -59.53017
   26 Torsion                  1     2     3     9        -179.39158
   27 Torsion                  1     2     3    10          59.97175
   28 Torsion                  3     2     1     4         179.39158
   29 Torsion                  3     2     1     5          59.53017
   30 Torsion                  3     2     1     6         -59.97175
   31 Torsion                  4     1     2     7         -59.76992
   32 Torsion                  5     1     2     7        -179.63134
   33 Torsion                  6     1     2     7          60.86675
   34 Torsion                  7     2     3     8         179.63134
   35 Torsion                  7     2     3     9          59.76992
   36 Torsion                  7     2     3    10         -60.86675


            XYZ format geometry
            -------------------
    10
 geometry
 C                    -0.21356779     0.00139453    -1.26953012
 C                     0.62439774     0.13394763     0.00000000
 C                    -0.21356779     0.00139453     1.26953012
 H                     0.41753976     0.11227380    -2.16023931
 H                    -0.99412056     0.77810968    -1.30013059
 H                    -0.71453025    -0.97595482    -1.31565667
 H                     1.39864913    -0.64927747     0.00000000
 H                    -0.99412056     0.77810968     1.30013059
 H                     0.41753976     0.11227380     2.16023931
 H                    -0.71453025    -0.97595482     1.31565667

 ==============================================================================
                                internuclear distances
 ------------------------------------------------------------------------------
       center one      |      center two      | atomic units |  angstroms
 ------------------------------------------------------------------------------
    2 C                |   1 C                |     2.88545  |     1.52691
    3 C                |   2 C                |     2.88545  |     1.52691
    4 H                |   1 C                |     2.07350  |     1.09725
    5 H                |   1 C                |     2.08169  |     1.10158
    6 H                |   1 C                |     2.07724  |     1.09923
    7 H                |   2 C                |     2.08119  |     1.10132
    8 H                |   3 C                |     2.08169  |     1.10158
    9 H                |   3 C                |     2.07350  |     1.09725
   10 H                |   3 C                |     2.07724  |     1.09923
 ------------------------------------------------------------------------------
                         number of included internuclear distances:          9
 ==============================================================================



 ==============================================================================
                                 internuclear angles
 ------------------------------------------------------------------------------
        center 1       |       center 2       |       center 3       |  degrees
 ------------------------------------------------------------------------------
    2 C                |   1 C                |   4 H                |   110.52
    2 C                |   1 C                |   5 H                |   110.53
    2 C                |   1 C                |   6 H                |   111.23
    4 H                |   1 C                |   5 H                |   108.29
    4 H                |   1 C                |   6 H                |   108.54
    5 H                |   1 C                |   6 H                |   107.63
    1 C                |   2 C                |   3 C                |   112.49
    1 C                |   2 C                |   7 H                |   108.91
    3 C                |   2 C                |   7 H                |   108.91
    2 C                |   3 C                |   8 H                |   110.53
    2 C                |   3 C                |   9 H                |   110.52
    2 C                |   3 C                |  10 H                |   111.23
    8 H                |   3 C                |   9 H                |   108.29
    8 H                |   3 C                |  10 H                |   107.63
    9 H                |   3 C                |  10 H                |   108.54
 ------------------------------------------------------------------------------
                            number of included internuclear angles:         15
 ==============================================================================





 Summary of "cc-pvdz" -> "" (spherical)
 ------------------------------------------------------------------------------
       Tag                 Description            Shells   Functions and Types
 ---------------- ------------------------------  ------  ---------------------
 *                          cc-pvdz                   on all atoms 




 Summary of "cc-pvtz" -> "" (spherical)
 ------------------------------------------------------------------------------
       Tag                 Description            Shells   Functions and Types
 ---------------- ------------------------------  ------  ---------------------
 *                          cc-pvtz                   on all atoms 




 Summary of "cc-pvqz" -> "" (spherical)
 ------------------------------------------------------------------------------
       Tag                 Description            Shells   Functions and Types
 ---------------- ------------------------------  ------  ---------------------
 *                          cc-pvqz                   on all atoms 




 Summary of "cc-pv5z" -> "" (spherical)
 ------------------------------------------------------------------------------
       Tag                 Description            Shells   Functions and Types
 ---------------- ------------------------------  ------  ---------------------
 *                          cc-pv5z                   on all atoms 




 Summary of "cc-pv6z" -> "" (spherical)
 ------------------------------------------------------------------------------
       Tag                 Description            Shells   Functions and Types
 ---------------- ------------------------------  ------  ---------------------
 *                          cc-pv6z                   on all atoms 


  pbe96 is a nonlocal functional; adding pw91lda local functional. 


                           NWChem Geometry Optimization
                           ----------------------------


  no constraints, skipping    0.0000000000000000     
 maximum gradient threshold         (gmax) =   0.000450
 rms gradient threshold             (grms) =   0.000300
 maximum cartesian step threshold   (xmax) =   0.001800
 rms cartesian step threshold       (xrms) =   0.001200
 fixed trust radius                (trust) =   0.300000
 maximum step size to saddle      (sadstp) =   0.100000
 energy precision                  (eprec) =   5.0D-06
 maximum number of steps          (nptopt) =   40
 initial hessian option           (inhess) =    0
 line search option               (linopt) =    1
 hessian update option            (modupd) =    1
 saddle point option              (modsad) =    0
 initial eigen-mode to follow     (moddir) =    0
 initial variable to follow       (vardir) =    0
 follow first negative mode     (firstneg) =    T
 apply conjugacy                    (opcg) =    F
 source of zmatrix                         =   autoz   


          -------------------
          Energy Minimization
          -------------------


 Names of Z-matrix variables 
    1              2              3              4              5         
    6              7              8              9             10         
   11             12             13             14             15         
   16             17             18             19             20         
   21             22             23             24             25         
   26             27             28             29             30         
   31             32             33             34             35         
   36         

 Variables with the same non-blank name are constrained to be equal


 Using diagonal initial Hessian 
 Scaling for Hessian diagonals: bonds = 1.00  angles = 0.25  torsions = 0.10

          --------
          Step   0
          --------


                         Geometry "geometry" -> "geometry"
                         ---------------------------------

 Output coordinates in angstroms (scale by  1.889725989 to convert to a.u.)

  No.       Tag          Charge          X              Y              Z
 ---- ---------------- ---------- -------------- -------------- --------------
    1 C                    6.0000    -0.21356779     0.00139453    -1.26953012
    2 C                    6.0000     0.62439774     0.13394763     0.00000000
    3 C                    6.0000    -0.21356779     0.00139453     1.26953012
    4 H                    1.0000     0.41753976     0.11227380    -2.16023931
    5 H                    1.0000    -0.99412056     0.77810968    -1.30013059
    6 H                    1.0000    -0.71453025    -0.97595482    -1.31565667
    7 H                    1.0000     1.39864913    -0.64927747     0.00000000
    8 H                    1.0000    -0.99412056     0.77810968     1.30013059
    9 H                    1.0000     0.41753976     0.11227380     2.16023931
   10 H                    1.0000    -0.71453025    -0.97595482     1.31565667

      Atomic Mass 
      ----------- 

      C                 12.000000
      H                  1.007825


 Effective nuclear repulsion energy (a.u.)      75.1206540359

            Nuclear Dipole moment (a.u.) 
            ----------------------------
        X                 Y               Z
 ---------------- ---------------- ----------------
    -0.0000000000     0.0000000000    -0.0000000000

      Symmetry information
      --------------------

 Group name             Cs        
 Group number              2
 Group order               2
 No. of unique centers     6

      Symmetry unique atoms

     1    2    4    5    6    7


                                 NWChem DFT Module
                                 -----------------


                      Basis "ao basis" -> "cc-pvdz" (spherical)
                      -----
  C (Carbon)
  ----------
            Exponent  Coefficients 
       -------------- ---------------------------------------------------------
  1 S  6.66500000E+03  0.000692
  1 S  1.00000000E+03  0.005329
  1 S  2.28000000E+02  0.027077
  1 S  6.47100000E+01  0.101718
  1 S  2.10600000E+01  0.274740
  1 S  7.49500000E+00  0.448564
  1 S  2.79700000E+00  0.285074
  1 S  5.21500000E-01  0.015204

  2 S  6.66500000E+03 -0.000146
  2 S  1.00000000E+03 -0.001154
  2 S  2.28000000E+02 -0.005725
  2 S  6.47100000E+01 -0.023312
  2 S  2.10600000E+01 -0.063955
  2 S  7.49500000E+00 -0.149981
  2 S  2.79700000E+00 -0.127262
  2 S  5.21500000E-01  0.544529

  3 S  1.59600000E-01  1.000000

  4 P  9.43900000E+00  0.038109
  4 P  2.00200000E+00  0.209480
  4 P  5.45600000E-01  0.508557

  5 P  1.51700000E-01  1.000000

  6 D  5.50000000E-01  1.000000

  H (Hydrogen)
  ------------
            Exponent  Coefficients 
       -------------- ---------------------------------------------------------
  1 S  1.30100000E+01  0.019685
  1 S  1.96200000E+00  0.137977
  1 S  4.44600000E-01  0.478148

  2 S  1.22000000E-01  1.000000

  3 P  7.27000000E-01  1.000000



 Summary of "ao basis" -> "cc-pvdz" (spherical)
 ------------------------------------------------------------------------------
       Tag                 Description            Shells   Functions and Types
 ---------------- ------------------------------  ------  ---------------------
 C                          cc-pvdz                  6       14   3s2p1d
 H                          cc-pvdz                  3        5   2s1p




 Summary of "ao basis" -> "cc-pvdz" (spherical)
 ------------------------------------------------------------------------------
       Tag                 Description            Shells   Functions and Types
 ---------------- ------------------------------  ------  ---------------------
 C                          cc-pvdz                  6       14   3s2p1d
 H                          cc-pvdz                  3        5   2s1p


      Symmetry analysis of basis
      --------------------------

        a'         43
        a"         34

  texas integral default override: limxmem =             50000000
  Caching 1-el integrals 
  itol2e modified to match energy
  convergence criterion.
  tol_rho modified to match energy
  convergence criterion.

            General Information
            -------------------
          SCF calculation type: DFT
          Wavefunction type:  closed shell.
          No. of atoms     :    10
          No. of electrons :    24
           Alpha electrons :    12
            Beta electrons :    12
          Charge           :     1
          Spin multiplicity:     1
          Use of symmetry is: on ; symmetry adaption is: on 
          Maximum number of iterations:  50
          This is a Direct SCF calculation.
          AO basis - number of functions:    77
                     number of shells:    39
          Convergence on energy requested:  1.00D-08
          Convergence on density requested:  1.00D-07
          Convergence on gradient requested:  1.00D-06

              XC Information
              --------------
          PerdewBurkeErnzerhof Exchange Functional  1.000          
            Perdew 1991 LDA Correlation Functional  1.000 local    
           PerdewBurkeErnz. Correlation Functional  1.000 non-local

             Grid Information
             ----------------
          Grid used for XC integration:  medium    
          Radial quadrature: Mura-Knowles        
          Angular quadrature: Lebedev. 
          Tag              B.-S. Rad. Rad. Pts. Rad. Cut. Ang. Pts.
          ---              ---------- --------- --------- ---------
          C                   0.70       49          10.0       434
          H                   0.35       45          11.0       434
          Grid pruning is: on 
          Number of quadrature shells:   278
          Spatial weights used:  Erf1

          Convergence Information
          -----------------------
          Convergence aids based upon iterative change in 
          total energy or number of iterations. 
          Levelshifting, if invoked, occurs when the 
          HOMO/LUMO gap drops below (HL_TOL):  1.00D-02
          DIIS, if invoked, will attempt to extrapolate 
          using up to (NFOCK): 10 stored Fock matrices.

                    Damping( 0%)  Levelshifting(0.5)       DIIS
                  --------------- ------------------- ---------------
          dE  on:    start            ASAP                start   
          dE off:    2 iters         50 iters            50 iters 


      Screening Tolerance Information
      -------------------------------
          Density screening/tol_rho:  1.00D-11
          AO Gaussian exp screening on grid/accAOfunc:  18
          CD Gaussian exp screening on grid/accCDfunc:  20
          XC Gaussian exp screening on grid/accXCfunc:  20
          Schwarz screening/accCoul:  1.00D-09


      Superposition of Atomic Density Guess
      -------------------------------------

 Sum of atomic energies:        -116.49339134

 Renormalizing density from      25.00 to     24

      Non-variational initial energy
      ------------------------------

 Total energy =    -114.800846
 1-e energy   =    -290.761513
 2-e energy   =     100.840013
 HOMO         =      -0.718492
 LUMO         =      -0.491866


      Symmetry analysis of molecular orbitals - initial
      -------------------------------------------------

  Numbering of irreducible representations: 

     1 a'          2 a"      

  Orbital symmetries:

     1 a'          2 a"          3 a'          4 a'          5 a"      
     6 a'          7 a'          8 a'          9 a"         10 a"      
    11 a"         12 a'         13 a'         14 a'         15 a"      
    16 a'         17 a'         18 a'         19 a"         20 a"      
    21 a'         22 a"      

   Time after variat. SCF:      0.5
   Time prior to 1st pass:      0.5

 Grid_pts file          = ./2-propyl-dat.gridpts.00
 Record size in doubles =  12289        No. of grid_pts per rec  =   3070
 Max. records in memory =      4        Max. recs in file   =    111032


           Memory utilization after 1st SCF pass: 
           Heap Space remaining (MW):       13.05            13053738
          Stack Space remaining (MW):       65.54            65535324

   convergence    iter        energy       DeltaE   RMS-Dens  Diis-err    time
 ---------------- ----- ----------------- --------- --------- ---------  ------
 d= 0,ls=0.0,diis     1   -117.8958770443 -1.93D+02  1.21D-02  7.52D-01     0.9
 d= 0,ls=0.0,diis     2   -117.8245572905  7.13D-02  9.13D-03  1.10D+00     1.2
 d= 0,ls=0.0,diis     3   -117.9535494615 -1.29D-01  3.55D-03  1.27D-01     1.6
 d= 0,ls=0.0,diis     4   -117.9695817894 -1.60D-02  1.21D-03  2.47D-02     1.9
 d= 0,ls=0.0,diis     5   -117.9733181425 -3.74D-03  1.20D-04  1.05D-04     2.3
  Resetting Diis
 d= 0,ls=0.0,diis     6   -117.9733332290 -1.51D-05  3.17D-05  1.28D-05     2.6
 d= 0,ls=0.0,diis     7   -117.9733351731 -1.94D-06  1.17D-05  4.90D-07     3.0
 d= 0,ls=0.0,diis     8   -117.9733351185  5.45D-08  8.49D-06  8.26D-07     3.4
 d= 0,ls=0.0,diis     9   -117.9733352299 -1.11D-07  2.53D-06  1.21D-07     3.8
 d= 0,ls=0.0,diis    10   -117.9733352476 -1.77D-08  2.52D-07  7.96D-10     4.1
 d= 0,ls=0.0,diis    11   -117.9733352477 -1.26D-10  2.55D-08  3.49D-12     4.5


         Total DFT energy =     -117.973335247718
      One electron energy =     -299.656174978683
           Coulomb energy =      124.864305152532
    Exchange-Corr. energy =      -18.302119457485
 Nuclear repulsion energy =       75.120654035919

 Numeric. integr. density =       23.999988905939

     Total iterative time =      4.1s



                  Occupations of the irreducible representations
                  ----------------------------------------------

                     irrep           alpha         beta
                     --------     --------     --------
                     a'                7.0          7.0
                     a"                5.0          5.0


                       DFT Final Molecular Orbital Analysis
                       ------------------------------------

 Vector    1  Occ=2.000000D+00  E=-1.025940D+01  Symmetry=a'
              MO Center=  6.2D-01,  1.3D-01, -1.3D-17, r^2= 2.8D-02
   Bfn.  Coefficient  Atom+Function         Bfn.  Coefficient  Atom+Function  
  ----- ------------  ---------------      ----- ------------  ---------------
    15      1.007342   2 C  s                17     -0.025642   2 C  s         

 Vector    2  Occ=2.000000D+00  E=-1.014059D+01  Symmetry=a"
              MO Center= -2.1D-01,  1.4D-03,  8.2D-17, r^2= 1.6D+00
   Bfn.  Coefficient  Atom+Function         Bfn.  Coefficient  Atom+Function  
  ----- ------------  ---------------      ----- ------------  ---------------
     1      0.713004   1 C  s                29     -0.713004   3 C  s         

 Vector    3  Occ=2.000000D+00  E=-1.014057D+01  Symmetry=a'
              MO Center= -2.1D-01,  1.4D-03, -7.2D-17, r^2= 1.6D+00
   Bfn.  Coefficient  Atom+Function         Bfn.  Coefficient  Atom+Function  
  ----- ------------  ---------------      ----- ------------  ---------------
     1      0.712324   1 C  s                29      0.712324   3 C  s         

 Vector    4  Occ=2.000000D+00  E=-9.766246D-01  Symmetry=a'
              MO Center=  1.8D-01, -1.4D-02, -1.9D-14, r^2= 1.5D+00
   Bfn.  Coefficient  Atom+Function         Bfn.  Coefficient  Atom+Function  
  ----- ------------  ---------------      ----- ------------  ---------------
    16      0.314181   2 C  s                17      0.261378   2 C  s         
     2      0.204202   1 C  s                30      0.204202   3 C  s         
    58      0.117319   7 H  s                 3      0.099143   1 C  s         
    31      0.099143   3 C  s                53      0.079170   6 H  s         
    73      0.079170  10 H  s                 6      0.071523   1 C  pz        

 Vector    5  Occ=2.000000D+00  E=-8.661169D-01  Symmetry=a"
              MO Center= -1.5D-01, -1.8D-02,  1.9D-14, r^2= 2.7D+00
   Bfn.  Coefficient  Atom+Function         Bfn.  Coefficient  Atom+Function  
  ----- ------------  ---------------      ----- ------------  ---------------
     2      0.282065   1 C  s                30     -0.282065   3 C  s         
    20     -0.192345   2 C  pz                3      0.176926   1 C  s         
    31     -0.176926   3 C  s                53      0.134420   6 H  s         
    73     -0.134420  10 H  s                43      0.129956   4 H  s         
    68     -0.129956   9 H  s                48      0.117854   5 H  s         

 Vector    6  Occ=2.000000D+00  E=-7.676728D-01  Symmetry=a'
              MO Center=  1.7D-01, -1.0D-01,  9.7D-17, r^2= 2.7D+00
   Bfn.  Coefficient  Atom+Function         Bfn.  Coefficient  Atom+Function  
  ----- ------------  ---------------      ----- ------------  ---------------
    16      0.286137   2 C  s                58      0.243017   7 H  s         
    17      0.204331   2 C  s                 2     -0.171277   1 C  s         
    30     -0.171277   3 C  s                18      0.149688   2 C  px        
    53     -0.132320   6 H  s                73     -0.132320  10 H  s         
    48     -0.131141   5 H  s                63     -0.131141   8 H  s         

 Vector    7  Occ=2.000000D+00  E=-6.558172D-01  Symmetry=a'
              MO Center=  1.1D-01, -7.9D-02,  5.9D-17, r^2= 2.4D+00
   Bfn.  Coefficient  Atom+Function         Bfn.  Coefficient  Atom+Function  
  ----- ------------  ---------------      ----- ------------  ---------------
    18      0.249427   2 C  px               19     -0.239360   2 C  py        
    58      0.200079   7 H  s                 5     -0.193301   1 C  py        
    33     -0.193301   3 C  py                6     -0.169561   1 C  pz        
    34      0.169561   3 C  pz               53      0.156412   6 H  s         
    73      0.156412  10 H  s                17     -0.107536   2 C  s         

 Vector    8  Occ=2.000000D+00  E=-6.268490D-01  Symmetry=a'
              MO Center=  1.1D-02, -2.5D-02,  7.0D-15, r^2= 3.0D+00
   Bfn.  Coefficient  Atom+Function         Bfn.  Coefficient  Atom+Function  
  ----- ------------  ---------------      ----- ------------  ---------------
     6      0.203494   1 C  pz               34     -0.203494   3 C  pz        
    43     -0.203529   4 H  s                68     -0.203529   9 H  s         
    18     -0.196506   2 C  px                5     -0.184205   1 C  py        
    33     -0.184205   3 C  py               53      0.155408   6 H  s         
    73      0.155408  10 H  s                19     -0.143412   2 C  py        

 Vector    9  Occ=2.000000D+00  E=-6.144182D-01  Symmetry=a"
              MO Center= -1.2D-01, -1.0D-01, -2.2D-15, r^2= 2.5D+00
   Bfn.  Coefficient  Atom+Function         Bfn.  Coefficient  Atom+Function  
  ----- ------------  ---------------      ----- ------------  ---------------
    20      0.355696   2 C  pz                4     -0.282530   1 C  px        
    32      0.282530   3 C  px               53      0.205225   6 H  s         
    73     -0.205225  10 H  s                23      0.141016   2 C  pz        
     5     -0.108355   1 C  py               33      0.108355   3 C  py        
    48      0.105406   5 H  s                63     -0.105406   8 H  s         

 Vector   10  Occ=2.000000D+00  E=-5.784855D-01  Symmetry=a"
              MO Center= -4.9D-01,  6.8D-02,  1.8D-14, r^2= 2.8D+00
   Bfn.  Coefficient  Atom+Function         Bfn.  Coefficient  Atom+Function  
  ----- ------------  ---------------      ----- ------------  ---------------
     5      0.313043   1 C  py               33     -0.313043   3 C  py        
    48      0.247145   5 H  s                63     -0.247145   8 H  s         
    53     -0.200141   6 H  s                73      0.200141  10 H  s         
     8      0.142543   1 C  py               36     -0.142543   3 C  py        
     4     -0.102135   1 C  px               32      0.102135   3 C  px        

 Vector   11  Occ=2.000000D+00  E=-5.462184D-01  Symmetry=a'
              MO Center= -1.6D-02,  1.4D-01,  1.4D-13, r^2= 2.9D+00
   Bfn.  Coefficient  Atom+Function         Bfn.  Coefficient  Atom+Function  
  ----- ------------  ---------------      ----- ------------  ---------------
    18     -0.287333   2 C  px                4      0.265140   1 C  px        
    32      0.265140   3 C  px               58     -0.262464   7 H  s         
    48     -0.232790   5 H  s                63     -0.232790   8 H  s         
    43      0.129795   4 H  s                68      0.129795   9 H  s         
    59     -0.112954   7 H  s                 5     -0.112348   1 C  py        

 Vector   12  Occ=2.000000D+00  E=-5.445806D-01  Symmetry=a"
              MO Center=  6.4D-02,  6.5D-02, -1.6D-13, r^2= 3.4D+00
   Bfn.  Coefficient  Atom+Function         Bfn.  Coefficient  Atom+Function  
  ----- ------------  ---------------      ----- ------------  ---------------
     6      0.325017   1 C  pz               34      0.325017   3 C  pz        
    43     -0.279073   4 H  s                68      0.279073   9 H  s         
    20     -0.263483   2 C  pz                9      0.138887   1 C  pz        
    37      0.138887   3 C  pz                4     -0.112118   1 C  px        
    32      0.112118   3 C  px               44     -0.105065   4 H  s         

 Vector   13  Occ=0.000000D+00  E=-4.407333D-01  Symmetry=a'
              MO Center=  4.4D-01,  1.4D-01,  3.6D-15, r^2= 2.0D+00
   Bfn.  Coefficient  Atom+Function         Bfn.  Coefficient  Atom+Function  
  ----- ------------  ---------------      ----- ------------  ---------------
    19      0.519390   2 C  py               22      0.344066   2 C  py        
    17      0.254709   2 C  s                18      0.248775   2 C  px        
    53      0.186171   6 H  s                73      0.186171  10 H  s         
    21      0.180583   2 C  px               16      0.129312   2 C  s         
    54      0.129464   6 H  s                74      0.129464  10 H  s         

 Vector   14  Occ=0.000000D+00  E=-1.633402D-01  Symmetry=a'
              MO Center=  2.4D-01, -5.9D-01,  9.3D-16, r^2= 5.2D+00
   Bfn.  Coefficient  Atom+Function         Bfn.  Coefficient  Atom+Function  
  ----- ------------  ---------------      ----- ------------  ---------------
    17      1.015965   2 C  s                59     -0.962507   7 H  s         
     3      0.778428   1 C  s                31      0.778428   3 C  s         
    54     -0.625103   6 H  s                74     -0.625103  10 H  s         
    44     -0.364371   4 H  s                69     -0.364371   9 H  s         
    49     -0.324687   5 H  s                64     -0.324687   8 H  s         

 Vector   15  Occ=0.000000D+00  E=-1.204023D-01  Symmetry=a'
              MO Center= -1.2D-01,  1.6D-01,  1.1D-13, r^2= 5.7D+00
   Bfn.  Coefficient  Atom+Function         Bfn.  Coefficient  Atom+Function  
  ----- ------------  ---------------      ----- ------------  ---------------
    59      1.140856   7 H  s                49     -0.928210   5 H  s         
    64     -0.928210   8 H  s                 3      0.653815   1 C  s         
    31      0.653815   3 C  s                17     -0.620442   2 C  s         
     7     -0.423543   1 C  px               35     -0.423543   3 C  px        
    54     -0.332501   6 H  s                74     -0.332501  10 H  s         

 Vector   16  Occ=0.000000D+00  E=-1.119379D-01  Symmetry=a"
              MO Center= -3.2D-01, -1.7D-01, -1.7D-14, r^2= 6.4D+00
   Bfn.  Coefficient  Atom+Function         Bfn.  Coefficient  Atom+Function  
  ----- ------------  ---------------      ----- ------------  ---------------
     3      1.573330   1 C  s                31     -1.573330   3 C  s         
    54     -0.732415   6 H  s                74      0.732415  10 H  s         
    23      0.623304   2 C  pz               49     -0.546400   5 H  s         
    64      0.546400   8 H  s                44     -0.524795   4 H  s         
    69      0.524795   9 H  s                20      0.195326   2 C  pz        

 Vector   17  Occ=0.000000D+00  E=-9.908149D-02  Symmetry=a'
              MO Center= -1.9D-01, -2.8D-01,  3.8D-15, r^2= 6.2D+00
   Bfn.  Coefficient  Atom+Function         Bfn.  Coefficient  Atom+Function  
  ----- ------------  ---------------      ----- ------------  ---------------
    54     -0.964332   6 H  s                74     -0.964332  10 H  s         
    44      0.921413   4 H  s                69      0.921413   9 H  s         
     8     -0.624659   1 C  py               36     -0.624659   3 C  py        
     9      0.457755   1 C  pz               37     -0.457755   3 C  pz        
    49      0.445496   5 H  s                64      0.445496   8 H  s         

 Vector   18  Occ=0.000000D+00  E=-8.919795D-02  Symmetry=a'
              MO Center=  1.5D-01, -2.2D-01, -5.0D-14, r^2= 6.1D+00
   Bfn.  Coefficient  Atom+Function         Bfn.  Coefficient  Atom+Function  
  ----- ------------  ---------------      ----- ------------  ---------------
    17      1.418213   2 C  s                59     -0.915741   7 H  s         
     3     -0.828648   1 C  s                31     -0.828648   3 C  s         
    44      0.775900   4 H  s                69      0.775900   9 H  s         
    49     -0.593105   5 H  s                64     -0.593105   8 H  s         
     7     -0.553779   1 C  px               35     -0.553779   3 C  px        

 Vector   19  Occ=0.000000D+00  E=-6.823753D-02  Symmetry=a"
              MO Center= -3.0D-01, -2.8D-01,  2.7D-15, r^2= 6.2D+00
   Bfn.  Coefficient  Atom+Function         Bfn.  Coefficient  Atom+Function  
  ----- ------------  ---------------      ----- ------------  ---------------
    54      1.072807   6 H  s                74     -1.072807  10 H  s         
    44     -0.872369   4 H  s                69      0.872369   9 H  s         
     8      0.703026   1 C  py               36     -0.703026   3 C  py        
    49     -0.643781   5 H  s                64      0.643781   8 H  s         
     9     -0.425925   1 C  pz               37     -0.425925   3 C  pz        

 Vector   20  Occ=0.000000D+00  E=-6.663020D-02  Symmetry=a'
              MO Center= -2.7D-02,  8.5D-02,  6.2D-13, r^2= 3.8D+00
   Bfn.  Coefficient  Atom+Function         Bfn.  Coefficient  Atom+Function  
  ----- ------------  ---------------      ----- ------------  ---------------
    17      1.821731   2 C  s                21     -1.433356   2 C  px        
     9     -1.073101   1 C  pz               37      1.073101   3 C  pz        
     3     -1.050778   1 C  s                31     -1.050778   3 C  s         
    59      0.769872   7 H  s                49      0.433557   5 H  s         
    64      0.433557   8 H  s                18     -0.367469   2 C  px        

 Vector   21  Occ=0.000000D+00  E=-6.502394D-02  Symmetry=a"
              MO Center= -1.9D-01,  3.1D-01, -6.5D-13, r^2= 6.0D+00
   Bfn.  Coefficient  Atom+Function         Bfn.  Coefficient  Atom+Function  
  ----- ------------  ---------------      ----- ------------  ---------------
    44      0.990740   4 H  s                69     -0.990740   9 H  s         
    49     -0.937737   5 H  s                64      0.937737   8 H  s         
     9      0.640219   1 C  pz               37      0.640219   3 C  pz        
     8      0.487275   1 C  py               36     -0.487275   3 C  py        
    23      0.448392   2 C  pz               54      0.406595   6 H  s         

 Vector   22  Occ=0.000000D+00  E=-2.511994D-02  Symmetry=a"
              MO Center= -1.1D-01,  1.0D-01, -1.1D-14, r^2= 4.1D+00
   Bfn.  Coefficient  Atom+Function         Bfn.  Coefficient  Atom+Function  
  ----- ------------  ---------------      ----- ------------  ---------------
    23      1.508406   2 C  pz                7      1.078485   1 C  px        
    35     -1.078485   3 C  px               49      0.811484   5 H  s         
    64     -0.811484   8 H  s                54      0.613810   6 H  s         
    74     -0.613810  10 H  s                 9      0.546884   1 C  pz        
    37      0.546884   3 C  pz               20      0.434098   2 C  pz        

 Vector   23  Occ=0.000000D+00  E= 1.359464D-01  Symmetry=a'
              MO Center= -1.5D-01, -2.9D-02,  4.7D-14, r^2= 4.6D+00
   Bfn.  Coefficient  Atom+Function         Bfn.  Coefficient  Atom+Function  
  ----- ------------  ---------------      ----- ------------  ---------------
    17      0.751880   2 C  s                 3     -0.595010   1 C  s         
     9     -0.593421   1 C  pz               31     -0.595010   3 C  s         
    37      0.593421   3 C  pz               21     -0.566756   2 C  px        
    43     -0.440558   4 H  s                44      0.439683   4 H  s         
    68     -0.440558   9 H  s                69      0.439683   9 H  s         

 Vector   24  Occ=0.000000D+00  E= 1.670362D-01  Symmetry=a"
              MO Center=  1.4D-01,  4.9D-02,  4.2D-14, r^2= 4.4D+00
   Bfn.  Coefficient  Atom+Function         Bfn.  Coefficient  Atom+Function  
  ----- ------------  ---------------      ----- ------------  ---------------
    23      0.745344   2 C  pz                9     -0.479105   1 C  pz        
    37     -0.479105   3 C  pz               20     -0.443017   2 C  pz        
     7     -0.294108   1 C  px               35      0.294108   3 C  px        
    48     -0.289916   5 H  s                63      0.289916   8 H  s         
     6      0.276744   1 C  pz               34      0.276744   3 C  pz        

 Vector   25  Occ=0.000000D+00  E= 1.747851D-01  Symmetry=a'
              MO Center=  9.1D-03,  6.6D-02,  4.1D-13, r^2= 3.8D+00
   Bfn.  Coefficient  Atom+Function         Bfn.  Coefficient  Atom+Function  
  ----- ------------  ---------------      ----- ------------  ---------------
    21      0.626236   2 C  px               58     -0.532366   7 H  s         
    53     -0.497846   6 H  s                73     -0.497846  10 H  s         
     7     -0.419125   1 C  px               35     -0.419125   3 C  px        
     8     -0.285745   1 C  py               36     -0.285745   3 C  py        
    19      0.275611   2 C  py                3      0.259154   1 C  s         

 Vector   26  Occ=0.000000D+00  E= 1.843566D-01  Symmetry=a"
              MO Center= -1.8D-01, -5.1D-02, -3.8D-13, r^2= 4.9D+00
   Bfn.  Coefficient  Atom+Function         Bfn.  Coefficient  Atom+Function  
  ----- ------------  ---------------      ----- ------------  ---------------
     8      0.609781   1 C  py               36     -0.609781   3 C  py        
    53      0.497887   6 H  s                73     -0.497887  10 H  s         
    54     -0.428390   6 H  s                74      0.428390  10 H  s         
    48     -0.381336   5 H  s                63      0.381336   8 H  s         
    49      0.336152   5 H  s                64     -0.336152   8 H  s         

 Vector   27  Occ=0.000000D+00  E= 1.978070D-01  Symmetry=a'
              MO Center=  8.2D-01,  2.1D-01, -2.6D-14, r^2= 2.8D+00
   Bfn.  Coefficient  Atom+Function         Bfn.  Coefficient  Atom+Function  
  ----- ------------  ---------------      ----- ------------  ---------------
    21      1.347297   2 C  px                3      0.652446   1 C  s         
    31      0.652446   3 C  s                17     -0.622605   2 C  s         
    19     -0.601021   2 C  py               18     -0.597369   2 C  px        
    22      0.568548   2 C  py                7     -0.262684   1 C  px        
    35     -0.262684   3 C  px                9      0.256847   1 C  pz        

 Vector   28  Occ=0.000000D+00  E= 2.268017D-01  Symmetry=a'
              MO Center=  2.4D-02,  4.1D-02, -2.7D-14, r^2= 3.8D+00
   Bfn.  Coefficient  Atom+Function         Bfn.  Coefficient  Atom+Function  
  ----- ------------  ---------------      ----- ------------  ---------------
    17      1.155808   2 C  s                 7     -0.782441   1 C  px        
    35     -0.782441   3 C  px               22     -0.702602   2 C  py        
     9     -0.512348   1 C  pz               37      0.512348   3 C  pz        
     6      0.374058   1 C  pz               34     -0.374058   3 C  pz        
    59     -0.369555   7 H  s                 4      0.361868   1 C  px        

 Vector   29  Occ=0.000000D+00  E= 3.216012D-01  Symmetry=a"
              MO Center=  1.4D-01,  6.1D-02,  3.7D-14, r^2= 4.4D+00
   Bfn.  Coefficient  Atom+Function         Bfn.  Coefficient  Atom+Function  
  ----- ------------  ---------------      ----- ------------  ---------------
    23      3.028404   2 C  pz                3      1.581463   1 C  s         
    31     -1.581463   3 C  s                 7      1.244020   1 C  px        
    35     -1.244020   3 C  px                9      1.008585   1 C  pz        
    37      1.008585   3 C  pz               20     -0.719985   2 C  pz        
    44      0.417818   4 H  s                69     -0.417818   9 H  s         

 Vector   30  Occ=0.000000D+00  E= 3.345573D-01  Symmetry=a'
              MO Center=  1.2D-01,  1.5D-01, -1.0D-13, r^2= 3.9D+00
   Bfn.  Coefficient  Atom+Function         Bfn.  Coefficient  Atom+Function  
  ----- ------------  ---------------      ----- ------------  ---------------
    21      1.633326   2 C  px               22     -1.367206   2 C  py        
    59     -1.275824   7 H  s                17     -0.911352   2 C  s         
     9      0.832142   1 C  pz               37     -0.832142   3 C  pz        
     8      0.716389   1 C  py               36      0.716389   3 C  py        
     3      0.659176   1 C  s                31      0.659176   3 C  s         

 Vector   31  Occ=0.000000D+00  E= 3.396478D-01  Symmetry=a"
              MO Center=  6.0D-02,  5.1D-02,  9.2D-14, r^2= 5.4D+00
   Bfn.  Coefficient  Atom+Function         Bfn.  Coefficient  Atom+Function  
  ----- ------------  ---------------      ----- ------------  ---------------
    43      0.754457   4 H  s                68     -0.754457   9 H  s         
    44     -0.594479   4 H  s                69      0.594479   9 H  s         
     9      0.416215   1 C  pz               37      0.416215   3 C  pz        
    20     -0.245703   2 C  pz                2     -0.235276   1 C  s         
    30      0.235276   3 C  s                49      0.183430   5 H  s         

 Vector   32  Occ=0.000000D+00  E= 3.695735D-01  Symmetry=a'
              MO Center= -2.0D-01, -2.5D-01,  1.1D-13, r^2= 4.7D+00
   Bfn.  Coefficient  Atom+Function         Bfn.  Coefficient  Atom+Function  
  ----- ------------  ---------------      ----- ------------  ---------------
     8      1.576981   1 C  py               36      1.576981   3 C  py        
    54      1.109141   6 H  s                74      1.109141  10 H  s         
    22     -0.769718   2 C  py               49     -0.560079   5 H  s         
    64     -0.560079   8 H  s                 5     -0.529330   1 C  py        
    33     -0.529330   3 C  py                3     -0.439499   1 C  s         

 Vector   33  Occ=0.000000D+00  E= 3.833063D-01  Symmetry=a'
              MO Center=  1.5D-01, -2.4D-01,  6.7D-14, r^2= 4.4D+00
   Bfn.  Coefficient  Atom+Function         Bfn.  Coefficient  Atom+Function  
  ----- ------------  ---------------      ----- ------------  ---------------
    59      1.037140   7 H  s                54     -0.685917   6 H  s         
    74     -0.685917  10 H  s                58     -0.636950   7 H  s         
    49      0.573299   5 H  s                64      0.573299   8 H  s         
    17     -0.542161   2 C  s                21     -0.437830   2 C  px        
    48     -0.368870   5 H  s                63     -0.368870   8 H  s         

 Vector   34  Occ=0.000000D+00  E= 3.951911D-01  Symmetry=a"
              MO Center= -4.3D-01, -6.9D-02, -4.0D-14, r^2= 5.2D+00
   Bfn.  Coefficient  Atom+Function         Bfn.  Coefficient  Atom+Function  
  ----- ------------  ---------------      ----- ------------  ---------------
     7      1.606777   1 C  px               35     -1.606777   3 C  px        
    44     -1.163274   4 H  s                69      1.163274   9 H  s         
    54      1.116486   6 H  s                74     -1.116486  10 H  s         
    49      0.807610   5 H  s                64     -0.807610   8 H  s         
    23      0.729314   2 C  pz                4     -0.558240   1 C  px        

 Vector   35  Occ=0.000000D+00  E= 4.065110D-01  Symmetry=a"
              MO Center= -6.3D-01, -3.3D-02, -1.2D-13, r^2= 5.2D+00
   Bfn.  Coefficient  Atom+Function         Bfn.  Coefficient  Atom+Function  
  ----- ------------  ---------------      ----- ------------  ---------------
    49     -1.493050   5 H  s                64      1.493050   8 H  s         
     8      1.465774   1 C  py               36     -1.465774   3 C  py        
    54      1.377153   6 H  s                74     -1.377153  10 H  s         
     5     -0.575242   1 C  py               33      0.575242   3 C  py        
     7     -0.382158   1 C  px               35      0.382158   3 C  px        

 Vector   36  Occ=0.000000D+00  E= 4.146689D-01  Symmetry=a'
              MO Center= -1.8D-01,  2.1D-01, -6.0D-14, r^2= 5.1D+00
   Bfn.  Coefficient  Atom+Function         Bfn.  Coefficient  Atom+Function  
  ----- ------------  ---------------      ----- ------------  ---------------
     7      1.144999   1 C  px               35      1.144999   3 C  px        
    44     -1.067169   4 H  s                69     -1.067169   9 H  s         
    49      1.043528   5 H  s                64      1.043528   8 H  s         
    59     -0.864921   7 H  s                21      0.795363   2 C  px        
     4     -0.469539   1 C  px               32     -0.469539   3 C  px        

 Vector   37  Occ=0.000000D+00  E= 4.255264D-01  Symmetry=a'
              MO Center=  1.2D-01, -3.6D-02, -4.2D-14, r^2= 5.7D+00
   Bfn.  Coefficient  Atom+Function         Bfn.  Coefficient  Atom+Function  
  ----- ------------  ---------------      ----- ------------  ---------------
    59      1.111886   7 H  s                44     -0.897222   4 H  s         
    69     -0.897222   9 H  s                 9     -0.649714   1 C  pz        
    37      0.649714   3 C  pz               21     -0.625004   2 C  px        
     3      0.529890   1 C  s                31      0.529890   3 C  s         
    43      0.513209   4 H  s                68      0.513209   9 H  s         

 Vector   38  Occ=0.000000D+00  E= 4.861279D-01  Symmetry=a"
              MO Center= -4.2D-01,  4.0D-02,  1.0D-14, r^2= 6.0D+00
   Bfn.  Coefficient  Atom+Function         Bfn.  Coefficient  Atom+Function  
  ----- ------------  ---------------      ----- ------------  ---------------
     9      1.741611   1 C  pz               37      1.741611   3 C  pz        
    44      1.198747   4 H  s                69     -1.198747   9 H  s         
    23      1.035917   2 C  pz                3     -0.859115   1 C  s         
    31      0.859115   3 C  s                49      0.760834   5 H  s         
    64     -0.760834   8 H  s                54      0.565375   6 H  s         

 Vector   39  Occ=0.000000D+00  E= 5.441875D-01  Symmetry=a'
              MO Center=  1.9D-01, -1.5D-01,  1.3D-13, r^2= 3.2D+00
   Bfn.  Coefficient  Atom+Function         Bfn.  Coefficient  Atom+Function  
  ----- ------------  ---------------      ----- ------------  ---------------
    17      3.134907   2 C  s                16     -1.218855   2 C  s         
    59     -0.703269   7 H  s                 9     -0.600025   1 C  pz        
    37      0.600025   3 C  pz               54     -0.566428   6 H  s         
    74     -0.566428  10 H  s                 7     -0.563098   1 C  px        
    35     -0.563098   3 C  px               15     -0.551141   2 C  s         

 Vector   40  Occ=0.000000D+00  E= 5.990376D-01  Symmetry=a"
              MO Center= -2.3D-03, -4.8D-03, -7.6D-14, r^2= 2.8D+00
   Bfn.  Coefficient  Atom+Function         Bfn.  Coefficient  Atom+Function  
  ----- ------------  ---------------      ----- ------------  ---------------
    25      0.390815   2 C  d -1             11     -0.344339   1 C  d -1      
    39     -0.344339   3 C  d -1             62     -0.161808   7 H  pz        
    57      0.158292   6 H  pz               77      0.158292  10 H  pz        
    46      0.156958   4 H  py               71     -0.156958   9 H  py        
    52     -0.147151   5 H  pz               67     -0.147151   8 H  pz        

 Vector   41  Occ=0.000000D+00  E= 6.091995D-01  Symmetry=a'
              MO Center=  2.1D-01, -3.8D-02,  5.6D-14, r^2= 2.7D+00
   Bfn.  Coefficient  Atom+Function         Bfn.  Coefficient  Atom+Function  
  ----- ------------  ---------------      ----- ------------  ---------------
    17      1.000591   2 C  s                16     -0.434972   2 C  s         
    28     -0.389904   2 C  d  2              3      0.367614   1 C  s         
    31      0.367614   3 C  s                21     -0.316941   2 C  px        
     9     -0.304303   1 C  pz               37      0.304303   3 C  pz        
     2     -0.279300   1 C  s                30     -0.279300   3 C  s         

 Vector   42  Occ=0.000000D+00  E= 7.715425D-01  Symmetry=a'
              MO Center=  4.7D-02,  1.3D-01, -2.1D-14, r^2= 3.9D+00
   Bfn.  Coefficient  Atom+Function         Bfn.  Coefficient  Atom+Function  
  ----- ------------  ---------------      ----- ------------  ---------------
     3      3.048927   1 C  s                31      3.048927   3 C  s         
     2     -1.145573   1 C  s                30     -1.145573   3 C  s         
    17     -0.870232   2 C  s                22     -0.765035   2 C  py        
    21      0.713853   2 C  px               44     -0.613698   4 H  s         
    69     -0.613698   9 H  s                 1     -0.554549   1 C  s         

 Vector   43  Occ=0.000000D+00  E= 8.364203D-01  Symmetry=a"
              MO Center=  4.6D-02,  7.8D-02, -3.7D-14, r^2= 3.7D+00
   Bfn.  Coefficient  Atom+Function         Bfn.  Coefficient  Atom+Function  
  ----- ------------  ---------------      ----- ------------  ---------------
    23      1.456779   2 C  pz                7      1.035440   1 C  px        
    35     -1.035440   3 C  px                3      0.981065   1 C  s         
    31     -0.981065   3 C  s                44     -0.389920   4 H  s         
    69      0.389920   9 H  s                14      0.316021   1 C  d  2      
    42     -0.316021   3 C  d  2              9     -0.280702   1 C  pz        

 Vector   44  Occ=0.000000D+00  E= 9.529628D-01  Symmetry=a"
              MO Center=  6.5D-02, -1.7D-01, -1.0D-14, r^2= 2.9D+00
   Bfn.  Coefficient  Atom+Function         Bfn.  Coefficient  Atom+Function  
  ----- ------------  ---------------      ----- ------------  ---------------
    23      0.981597   2 C  pz                3      0.751511   1 C  s         
    31     -0.751511   3 C  s                25      0.560538   2 C  d -1      
     8      0.446511   1 C  py               36     -0.446511   3 C  py        
    62     -0.378133   7 H  pz                7      0.296758   1 C  px        
    35     -0.296758   3 C  px               57     -0.267028   6 H  pz        

 Vector   45  Occ=0.000000D+00  E= 9.901120D-01  Symmetry=a'
              MO Center=  1.1D-01, -1.1D-01,  2.5D-14, r^2= 3.4D+00
   Bfn.  Coefficient  Atom+Function         Bfn.  Coefficient  Atom+Function  
  ----- ------------  ---------------      ----- ------------  ---------------
    17      2.304378   2 C  s                22     -1.337069   2 C  py        
     3     -1.272739   1 C  s                31     -1.272739   3 C  s         
     8      0.702732   1 C  py               36      0.702732   3 C  py        
    59     -0.691467   7 H  s                21      0.674488   2 C  px        
    58     -0.608307   7 H  s                 7     -0.520561   1 C  px        

 Vector   46  Occ=0.000000D+00  E= 9.946869D-01  Symmetry=a"
              MO Center= -2.8D-01, -2.7D-02, -9.7D-14, r^2= 3.8D+00
   Bfn.  Coefficient  Atom+Function         Bfn.  Coefficient  Atom+Function  
  ----- ------------  ---------------      ----- ------------  ---------------
     3      4.401315   1 C  s                31     -4.401315   3 C  s         
    23      1.959282   2 C  pz                2     -1.367518   1 C  s         
    30      1.367518   3 C  s                 1     -0.697981   1 C  s         
    29      0.697981   3 C  s                 9      0.691104   1 C  pz        
    37      0.691104   3 C  pz               53     -0.569217   6 H  s         

 Vector   47  Occ=0.000000D+00  E= 1.105152D+00  Symmetry=a'
              MO Center=  2.2D-01, -5.8D-02,  2.8D-14, r^2= 3.4D+00
   Bfn.  Coefficient  Atom+Function         Bfn.  Coefficient  Atom+Function  
  ----- ------------  ---------------      ----- ------------  ---------------
    17      2.394116   2 C  s                 3     -1.701825   1 C  s         
    31     -1.701825   3 C  s                21     -1.410658   2 C  px        
     9     -0.718119   1 C  pz               37      0.718119   3 C  pz        
    24      0.435659   2 C  d -2             16     -0.426763   2 C  s         
    28      0.386214   2 C  d  2             26     -0.331132   2 C  d  0      

 Vector   48  Occ=0.000000D+00  E= 1.129096D+00  Symmetry=a'
              MO Center= -4.6D-01, -4.6D-02, -1.8D-14, r^2= 4.0D+00
   Bfn.  Coefficient  Atom+Function         Bfn.  Coefficient  Atom+Function  
  ----- ------------  ---------------      ----- ------------  ---------------
    46      0.399843   4 H  py               71      0.399843   9 H  py        
    55      0.359564   6 H  px               75      0.359564  10 H  px        
    51     -0.289972   5 H  py               66     -0.289972   8 H  py        
    50     -0.274091   5 H  px               65     -0.274091   8 H  px        
    56     -0.186689   6 H  py               76     -0.186689  10 H  py        

 Vector   49  Occ=0.000000D+00  E= 1.133704D+00  Symmetry=a"
              MO Center= -4.0D-01, -3.1D-02,  1.7D-14, r^2= 4.2D+00
   Bfn.  Coefficient  Atom+Function         Bfn.  Coefficient  Atom+Function  
  ----- ------------  ---------------      ----- ------------  ---------------
    46      0.431192   4 H  py               71     -0.431192   9 H  py        
    55      0.331537   6 H  px               75     -0.331537  10 H  px        
    50     -0.264811   5 H  px               65      0.264811   8 H  px        
    51     -0.234382   5 H  py               66      0.234382   8 H  py        
    57     -0.230882   6 H  pz               77     -0.230882  10 H  pz        

 Vector   50  Occ=0.000000D+00  E= 1.191813D+00  Symmetry=a'
              MO Center=  2.6D-01, -1.3D-01,  1.4D-15, r^2= 3.3D+00
   Bfn.  Coefficient  Atom+Function         Bfn.  Coefficient  Atom+Function  
  ----- ------------  ---------------      ----- ------------  ---------------
    17      6.789505   2 C  s                 3     -3.491992   1 C  s         
    31     -3.491992   3 C  s                21     -1.743890   2 C  px        
    16     -1.550072   2 C  s                 9     -1.282824   1 C  pz        
    37      1.282824   3 C  pz               22     -1.065350   2 C  py        
    15     -0.831757   2 C  s                58     -0.834043   7 H  s         

 Vector   51  Occ=0.000000D+00  E= 1.260141D+00  Symmetry=a"
              MO Center=  3.8D-02,  2.9D-02,  1.5D-12, r^2= 2.7D+00
   Bfn.  Coefficient  Atom+Function         Bfn.  Coefficient  Atom+Function  
  ----- ------------  ---------------      ----- ------------  ---------------
     9      0.895173   1 C  pz               37      0.895173   3 C  pz        
     3      0.846156   1 C  s                31     -0.846156   3 C  s         
    27     -0.600956   2 C  d  1              2     -0.569224   1 C  s         
    30      0.569224   3 C  s                20      0.441016   2 C  pz        
    13     -0.394400   1 C  d  1             41     -0.394400   3 C  d  1      

 Vector   52  Occ=0.000000D+00  E= 1.261294D+00  Symmetry=a'
              MO Center=  2.6D-01,  7.0D-02, -1.1D-12, r^2= 3.0D+00
   Bfn.  Coefficient  Atom+Function         Bfn.  Coefficient  Atom+Function  
  ----- ------------  ---------------      ----- ------------  ---------------
    58      0.648512   7 H  s                 7      0.604056   1 C  px        
    35      0.604056   3 C  px               21     -0.593872   2 C  px        
    26      0.475794   2 C  d  0             24      0.426480   2 C  d -2      
    22      0.368866   2 C  py               48      0.341038   5 H  s         
    63      0.341038   8 H  s                16     -0.337602   2 C  s         

 Vector   53  Occ=0.000000D+00  E= 1.318136D+00  Symmetry=a'
              MO Center=  9.0D-02, -1.5D-01,  7.6D-13, r^2= 3.2D+00
   Bfn.  Coefficient  Atom+Function         Bfn.  Coefficient  Atom+Function  
  ----- ------------  ---------------      ----- ------------  ---------------
    17      0.593615   2 C  s                60      0.477806   7 H  px        
    53     -0.463800   6 H  s                73     -0.463800  10 H  s         
     8     -0.446778   1 C  py               36     -0.446778   3 C  py        
    21     -0.421530   2 C  px               61      0.373646   7 H  py        
    12     -0.365920   1 C  d  0             40     -0.365920   3 C  d  0      

 Vector   54  Occ=0.000000D+00  E= 1.324259D+00  Symmetry=a"
              MO Center= -3.6D-02, -9.6D-02, -1.5D-13, r^2= 3.5D+00
   Bfn.  Coefficient  Atom+Function         Bfn.  Coefficient  Atom+Function  
  ----- ------------  ---------------      ----- ------------  ---------------
    23      1.003975   2 C  pz                7      0.557768   1 C  px        
    35     -0.557768   3 C  px                8     -0.542565   1 C  py        
    36      0.542565   3 C  py               48      0.495002   5 H  s         
    63     -0.495002   8 H  s                62     -0.474046   7 H  pz        
    10      0.457288   1 C  d -2             38     -0.457288   3 C  d -2      

 Vector   55  Occ=0.000000D+00  E= 1.358954D+00  Symmetry=a"
              MO Center= -2.0D-01,  7.4D-03, -3.6D-13, r^2= 4.1D+00
   Bfn.  Coefficient  Atom+Function         Bfn.  Coefficient  Atom+Function  
  ----- ------------  ---------------      ----- ------------  ---------------
    23      1.477809   2 C  pz                7      1.264892   1 C  px        
    35     -1.264892   3 C  px                3      0.745523   1 C  s         
    31     -0.745523   3 C  s                 8      0.605285   1 C  py        
    36     -0.605285   3 C  py               53      0.425205   6 H  s         
    73     -0.425205  10 H  s                14      0.403335   1 C  d  2      

 Vector   56  Occ=0.000000D+00  E= 1.360526D+00  Symmetry=a'
              MO Center= -1.6D-01,  4.9D-03, -4.1D-13, r^2= 3.3D+00
   Bfn.  Coefficient  Atom+Function         Bfn.  Coefficient  Atom+Function  
  ----- ------------  ---------------      ----- ------------  ---------------
    17     -0.550061   2 C  s                 8      0.537387   1 C  py        
    36      0.537387   3 C  py               48     -0.511221   5 H  s         
    63     -0.511221   8 H  s                10     -0.498675   1 C  d -2      
    38     -0.498675   3 C  d -2              3      0.364800   1 C  s         
    31      0.364800   3 C  s                53      0.319616   6 H  s         

 Vector   57  Occ=0.000000D+00  E= 1.385482D+00  Symmetry=a"
              MO Center=  1.9D-03,  1.9D-02,  4.3D-13, r^2= 3.8D+00
   Bfn.  Coefficient  Atom+Function         Bfn.  Coefficient  Atom+Function  
  ----- ------------  ---------------      ----- ------------  ---------------
     9      0.695598   1 C  pz               37      0.695598   3 C  pz        
    23      0.579368   2 C  pz               62     -0.510913   7 H  pz        
     8      0.483152   1 C  py               36     -0.483152   3 C  py        
    43      0.404730   4 H  s                68     -0.404730   9 H  s         
     7     -0.386041   1 C  px               35      0.386041   3 C  px        

 Vector   58  Occ=0.000000D+00  E= 1.395065D+00  Symmetry=a'
              MO Center= -2.0D-01,  1.0D-02, -5.3D-13, r^2= 3.5D+00
   Bfn.  Coefficient  Atom+Function         Bfn.  Coefficient  Atom+Function  
  ----- ------------  ---------------      ----- ------------  ---------------
    17     -0.949634   2 C  s                16      0.904554   2 C  s         
     3      0.721291   1 C  s                31      0.721291   3 C  s         
    13      0.510700   1 C  d  1             41     -0.510700   3 C  d  1      
     9     -0.498232   1 C  pz               37      0.498232   3 C  pz        
    43     -0.456868   4 H  s                68     -0.456868   9 H  s         

 Vector   59  Occ=0.000000D+00  E= 1.432374D+00  Symmetry=a'
              MO Center= -2.9D-02, -2.2D-01,  3.2D-14, r^2= 3.8D+00
   Bfn.  Coefficient  Atom+Function         Bfn.  Coefficient  Atom+Function  
  ----- ------------  ---------------      ----- ------------  ---------------
     8      0.703131   1 C  py               36      0.703131   3 C  py        
    17      0.618116   2 C  s                22     -0.432950   2 C  py        
    55      0.411986   6 H  px               75      0.411986  10 H  px        
     7     -0.408413   1 C  px               35     -0.408413   3 C  px        
    46     -0.403077   4 H  py               71     -0.403077   9 H  py        

 Vector   60  Occ=0.000000D+00  E= 1.476449D+00  Symmetry=a"
              MO Center=  2.3D-01, -4.8D-04, -1.2D-13, r^2= 3.7D+00
   Bfn.  Coefficient  Atom+Function         Bfn.  Coefficient  Atom+Function  
  ----- ------------  ---------------      ----- ------------  ---------------
     3      0.540153   1 C  s                31     -0.540153   3 C  s         
    62     -0.512481   7 H  pz               49     -0.446077   5 H  s         
    64      0.446077   8 H  s                27     -0.395647   2 C  d  1      
    13      0.384969   1 C  d  1             41      0.384969   3 C  d  1      
    47      0.381254   4 H  pz               72      0.381254   9 H  pz        

 Vector   61  Occ=0.000000D+00  E= 1.512001D+00  Symmetry=a'
              MO Center=  1.4D-01,  1.1D-01,  2.2D-14, r^2= 3.4D+00
   Bfn.  Coefficient  Atom+Function         Bfn.  Coefficient  Atom+Function  
  ----- ------------  ---------------      ----- ------------  ---------------
    17      2.015718   2 C  s                 3     -1.030805   1 C  s         
    31     -1.030805   3 C  s                 7     -0.748706   1 C  px        
    35     -0.748706   3 C  px                8     -0.709341   1 C  py        
    36     -0.709341   3 C  py               26      0.677690   2 C  d  0      
    22      0.622798   2 C  py               21     -0.550632   2 C  px        

 Vector   62  Occ=0.000000D+00  E= 1.632823D+00  Symmetry=a"
              MO Center= -3.2D-01, -1.0D-01, -9.6D-15, r^2= 3.5D+00
   Bfn.  Coefficient  Atom+Function         Bfn.  Coefficient  Atom+Function  
  ----- ------------  ---------------      ----- ------------  ---------------
     3      1.787258   1 C  s                31     -1.787258   3 C  s         
     9      1.572079   1 C  pz               37      1.572079   3 C  pz        
    23      1.233796   2 C  pz               27      0.749680   2 C  d  1      
    44      0.670715   4 H  s                69     -0.670715   9 H  s         
    57     -0.532407   6 H  pz               77     -0.532407  10 H  pz        

 Vector   63  Occ=0.000000D+00  E= 1.679579D+00  Symmetry=a'
              MO Center=  1.1D-01, -1.0D-01, -2.9D-13, r^2= 3.2D+00
   Bfn.  Coefficient  Atom+Function         Bfn.  Coefficient  Atom+Function  
  ----- ------------  ---------------      ----- ------------  ---------------
    17      1.445508   2 C  s                 3     -0.893889   1 C  s         
    31     -0.893889   3 C  s                28     -0.716842   2 C  d  2      
    22     -0.542584   2 C  py                7     -0.491480   1 C  px        
    35     -0.491480   3 C  px               61      0.454689   7 H  py        
    44      0.435856   4 H  s                69      0.435856   9 H  s         

 Vector   64  Occ=0.000000D+00  E= 1.680509D+00  Symmetry=a"
              MO Center= -1.9D-01, -9.3D-02,  4.1D-13, r^2= 3.6D+00
   Bfn.  Coefficient  Atom+Function         Bfn.  Coefficient  Atom+Function  
  ----- ------------  ---------------      ----- ------------  ---------------
     3      0.735721   1 C  s                31     -0.735721   3 C  s         
    27      0.717083   2 C  d  1             13     -0.503403   1 C  d  1      
    41     -0.503403   3 C  d  1             20      0.453861   2 C  pz        
    55      0.446452   6 H  px               75     -0.446452  10 H  px        
    23      0.412855   2 C  pz               12      0.397841   1 C  d  0      

 Vector   65  Occ=0.000000D+00  E= 1.720057D+00  Symmetry=a"
              MO Center= -6.3D-02, -3.1D-02,  4.6D-13, r^2= 3.9D+00
   Bfn.  Coefficient  Atom+Function         Bfn.  Coefficient  Atom+Function  
  ----- ------------  ---------------      ----- ------------  ---------------
    25      0.517624   2 C  d -1             46     -0.519848   4 H  py        
    71      0.519848   9 H  py                8      0.440951   1 C  py        
    36     -0.440951   3 C  py               62      0.388307   7 H  pz        
    57     -0.371335   6 H  pz               77     -0.371335  10 H  pz        
     9      0.362081   1 C  pz               37      0.362081   3 C  pz        

 Vector   66  Occ=0.000000D+00  E= 1.724002D+00  Symmetry=a'
              MO Center= -3.6D-01, -1.3D-02, -6.4D-13, r^2= 4.0D+00
   Bfn.  Coefficient  Atom+Function         Bfn.  Coefficient  Atom+Function  
  ----- ------------  ---------------      ----- ------------  ---------------
     3      0.689101   1 C  s                31      0.689101   3 C  s         
    13     -0.545947   1 C  d  1             41      0.545947   3 C  d  1      
    57      0.432565   6 H  pz               77     -0.432565  10 H  pz        
    12      0.412136   1 C  d  0             40      0.412136   3 C  d  0      
    52      0.405327   5 H  pz               67     -0.405327   8 H  pz        

 Vector   67  Occ=0.000000D+00  E= 1.896985D+00  Symmetry=a'
              MO Center=  3.9D-01, -2.2D-01,  1.6D-13, r^2= 3.3D+00
   Bfn.  Coefficient  Atom+Function         Bfn.  Coefficient  Atom+Function  
  ----- ------------  ---------------      ----- ------------  ---------------
    60      0.802610   7 H  px               11      0.574264   1 C  d -1      
    39     -0.574264   3 C  d -1             19     -0.534585   2 C  py        
    61     -0.510537   7 H  py               58     -0.494727   7 H  s         
    59     -0.482548   7 H  s                16      0.461941   2 C  s         
    46      0.459823   4 H  py               71      0.459823   9 H  py        

 Vector   68  Occ=0.000000D+00  E= 1.925521D+00  Symmetry=a"
              MO Center= -2.2D-01,  1.1D-01, -4.3D-15, r^2= 3.6D+00
   Bfn.  Coefficient  Atom+Function         Bfn.  Coefficient  Atom+Function  
  ----- ------------  ---------------      ----- ------------  ---------------
    23      0.872901   2 C  pz               11     -0.588838   1 C  d -1      
    39     -0.588838   3 C  d -1              7      0.575995   1 C  px        
    35     -0.575995   3 C  px               25     -0.524934   2 C  d -1      
    52      0.483000   5 H  pz               67      0.483000   8 H  pz        
     3      0.408353   1 C  s                31     -0.408353   3 C  s         

 Vector   69  Occ=0.000000D+00  E= 1.958009D+00  Symmetry=a"
              MO Center= -1.8D-01, -1.0D-01,  7.6D-14, r^2= 3.4D+00
   Bfn.  Coefficient  Atom+Function         Bfn.  Coefficient  Atom+Function  
  ----- ------------  ---------------      ----- ------------  ---------------
    27      0.694648   2 C  d  1             23      0.513559   2 C  pz        
    11      0.481499   1 C  d -1             39      0.481499   3 C  d -1      
     7      0.476284   1 C  px               35     -0.476284   3 C  px        
    50     -0.450206   5 H  px               65      0.450206   8 H  px        
    14     -0.435286   1 C  d  2             42      0.435286   3 C  d  2      

 Vector   70  Occ=0.000000D+00  E= 1.979032D+00  Symmetry=a'
              MO Center= -1.1D-01,  1.6D-02, -2.8D-13, r^2= 3.4D+00
   Bfn.  Coefficient  Atom+Function         Bfn.  Coefficient  Atom+Function  
  ----- ------------  ---------------      ----- ------------  ---------------
    17      1.660765   2 C  s                14     -0.745111   1 C  d  2      
    42     -0.745111   3 C  d  2              3     -0.728087   1 C  s         
    31     -0.728087   3 C  s                26      0.520559   2 C  d  0      
    11     -0.462140   1 C  d -1             24     -0.463024   2 C  d -2      
    39      0.462140   3 C  d -1             58     -0.410214   7 H  s         

 Vector   71  Occ=0.000000D+00  E= 2.087574D+00  Symmetry=a'
              MO Center= -3.6D-01, -4.9D-01, -1.3D-13, r^2= 3.6D+00
   Bfn.  Coefficient  Atom+Function         Bfn.  Coefficient  Atom+Function  
  ----- ------------  ---------------      ----- ------------  ---------------
    53      0.899481   6 H  s                73      0.899481  10 H  s         
    56      0.832662   6 H  py               76      0.832662  10 H  py        
     2     -0.704405   1 C  s                30     -0.704405   3 C  s         
     3     -0.623345   1 C  s                31     -0.623345   3 C  s         
    55      0.532359   6 H  px               75      0.532359  10 H  px        

 Vector   72  Occ=0.000000D+00  E= 2.113842D+00  Symmetry=a"
              MO Center= -7.3D-01, -8.0D-02,  7.1D-13, r^2= 3.2D+00
   Bfn.  Coefficient  Atom+Function         Bfn.  Coefficient  Atom+Function  
  ----- ------------  ---------------      ----- ------------  ---------------
     7     -0.749829   1 C  px               35      0.749829   3 C  px        
    56     -0.749149   6 H  py               76      0.749149  10 H  py        
    53     -0.743520   6 H  s                73      0.743520  10 H  s         
     2      0.719677   1 C  s                30     -0.719677   3 C  s         
    48     -0.686440   5 H  s                63      0.686440   8 H  s         

 Vector   73  Occ=0.000000D+00  E= 2.116634D+00  Symmetry=a'
              MO Center= -4.7D-01,  3.9D-01, -6.6D-13, r^2= 3.5D+00
   Bfn.  Coefficient  Atom+Function         Bfn.  Coefficient  Atom+Function  
  ----- ------------  ---------------      ----- ------------  ---------------
    48      0.938181   5 H  s                63      0.938181   8 H  s         
     3     -0.829768   1 C  s                31     -0.829768   3 C  s         
    51     -0.710375   5 H  py               66     -0.710375   8 H  py        
     5     -0.698598   1 C  py               33     -0.698598   3 C  py        
    50      0.665712   5 H  px               65      0.665712   8 H  px        

 Vector   74  Occ=0.000000D+00  E= 2.165854D+00  Symmetry=a"
              MO Center=  1.5D-01,  9.7D-02, -3.7D-14, r^2= 4.6D+00
   Bfn.  Coefficient  Atom+Function         Bfn.  Coefficient  Atom+Function  
  ----- ------------  ---------------      ----- ------------  ---------------
    43      1.167296   4 H  s                68     -1.167296   9 H  s         
    47      0.966831   4 H  pz               72      0.966831   9 H  pz        
     9      0.778698   1 C  pz               37      0.778698   3 C  pz        
    13     -0.773694   1 C  d  1             41     -0.773694   3 C  d  1      
    44      0.707957   4 H  s                69     -0.707957   9 H  s         

 Vector   75  Occ=0.000000D+00  E= 2.230260D+00  Symmetry=a'
              MO Center=  1.9D-01, -1.2D-01,  8.1D-14, r^2= 3.1D+00
   Bfn.  Coefficient  Atom+Function         Bfn.  Coefficient  Atom+Function  
  ----- ------------  ---------------      ----- ------------  ---------------
    58      0.938476   7 H  s                26      0.821979   2 C  d  0      
    61      0.765682   7 H  py               12      0.703681   1 C  d  0      
    40      0.703681   3 C  d  0             24      0.612836   2 C  d -2      
    53      0.604544   6 H  s                73      0.604544  10 H  s         
    43     -0.589267   4 H  s                68     -0.589267   9 H  s         

 Vector   76  Occ=0.000000D+00  E= 2.256204D+00  Symmetry=a"
              MO Center= -2.5D-01, -1.3D-02,  1.2D-13, r^2= 3.2D+00
   Bfn.  Coefficient  Atom+Function         Bfn.  Coefficient  Atom+Function  
  ----- ------------  ---------------      ----- ------------  ---------------
    10      1.040775   1 C  d -2             38     -1.040775   3 C  d -2      
    48      0.916505   5 H  s                63     -0.916505   8 H  s         
    53     -0.858145   6 H  s                73      0.858145  10 H  s         
     5     -0.752477   1 C  py                8     -0.754260   1 C  py        
    33      0.752477   3 C  py               36      0.754260   3 C  py        

 Vector   77  Occ=0.000000D+00  E= 2.283469D+00  Symmetry=a'
              MO Center=  2.5D-01,  1.6D-02, -6.8D-14, r^2= 3.4D+00
   Bfn.  Coefficient  Atom+Function         Bfn.  Coefficient  Atom+Function  
  ----- ------------  ---------------      ----- ------------  ---------------
    58      1.120643   7 H  s                43      0.871490   4 H  s         
    68      0.871490   9 H  s                21     -0.832791   2 C  px        
    24      0.811853   2 C  d -2             60     -0.708706   7 H  px        
    59      0.697534   7 H  s                48     -0.671252   5 H  s         
    63     -0.671252   8 H  s                 4     -0.635125   1 C  px        


 center of mass
 --------------
 x =   0.05154195 y =   0.03572746 z =   0.00000000

 moments of inertia (a.u.)
 ------------------
         209.885322226204          -0.000000000000          -0.000000000000
          -0.000000000000         235.935035523766           0.000000000000
          -0.000000000000           0.000000000000          53.121919508697

     Multipole analysis of the density
     ---------------------------------

     L   x y z        total         alpha         beta         nuclear
     -   - - -        -----         -----         ----         -------
     0   0 0 0      1.000000    -12.000000    -12.000000     25.000000

     1   1 0 0      0.121170      0.060585      0.060585     -0.000000
     1   0 1 0     -0.249447     -0.124724     -0.124724      0.000000
     1   0 0 1     -0.000000     -0.000000     -0.000000     -0.000000

     2   2 0 0    -11.107663    -20.175780    -20.175780     29.243896
[...]
          11     0.17482    -0.16394    -0.16371    -0.00184     0.05016    -0.05134
          12    -0.24195     0.26895     0.27207    -0.00489    -0.06033     0.06519
          13    -0.15323     0.00780     0.00703    -0.10121     0.50893    -0.49713
          14     0.12182     0.00904     0.00878     0.08040    -0.40441     0.39509
          15     0.00501    -0.00001     0.00000     0.00397    -0.00712     0.00230
          16    -0.09026    -0.07772    -0.07834     0.00219    -0.02939     0.02885
          17    -0.38813    -0.38695    -0.38676    -0.00143    -0.09525     0.10271
          18    -0.24328    -0.26788    -0.27211    -0.00493    -0.06032     0.06519
          19    -0.04506    -0.00972    -0.00000     0.73214    -0.00000    -0.13820
          20     0.03576    -0.01232     0.00000    -0.58210     0.00000     0.10982
          21     0.00000     0.00000     0.00000    -0.00000     0.00610     0.00000
          22    -0.15323     0.00780    -0.00703    -0.10121    -0.50893    -0.49713
          23     0.12182     0.00904    -0.00878     0.08040     0.40441     0.39509
          24    -0.00501     0.00001     0.00000    -0.00397    -0.00712    -0.00230
          25     0.35608    -0.36111     0.35915     0.00182    -0.08618    -0.09354
          26     0.17482    -0.16394     0.16371    -0.00184    -0.05016    -0.05134
          27     0.24195    -0.26895     0.27207     0.00489    -0.06033    -0.06519
          28    -0.09026    -0.07772     0.07834     0.00219     0.02939     0.02885
          29    -0.38813    -0.38695     0.38676    -0.00143     0.09525     0.10271
          30     0.24328     0.26788    -0.27211     0.00493    -0.06032    -0.06519



 ----------------------------------------------------------------------------
 Normal Eigenvalue ||    Projected Derivative Dipole Moments (debye/angs)
  Mode   [cm**-1]  ||      [d/dqX]             [d/dqY]           [d/dqZ]
 ------ ---------- || ------------------ ------------------ -----------------
    1      -76.246 ||      -0.000              -0.000            -0.001
    2       -0.000 ||       0.017              -0.204             0.650
    3       -0.000 ||       0.018              -0.616            -0.114
    4       -0.000 ||       0.458               0.078             0.208
    5        0.000 ||      -0.024               0.382             0.124
    6        0.000 ||       0.426               0.004            -0.230
    7        0.000 ||      -0.410              -0.040             0.007
    8      121.594 ||       0.505               0.636            -0.000
    9      409.976 ||       0.092              -0.073            -0.000
   10      609.044 ||       0.000               0.000             0.001
   11      815.959 ||      -0.166              -0.207            -0.000
   12      865.988 ||      -0.000               0.000             1.350
   13      875.934 ||      -0.205               0.164            -0.000
   14     1068.988 ||      -0.377              -0.476             0.000
   15     1140.065 ||       0.264              -0.210            -0.000
   16     1157.545 ||       0.000               0.000             3.028
   17     1220.674 ||       0.000               0.000            -0.788
   18     1250.498 ||       0.156              -0.125             0.000
   19     1288.363 ||       0.000              -0.000            -0.000
   20     1311.994 ||      -0.000               0.000             0.135
   21     1345.764 ||      -0.614              -0.774             0.000
   22     1397.980 ||      -0.628               0.498            -0.000
   23     1514.881 ||      -0.000              -0.000            -1.291
   24     2883.616 ||      -0.000              -0.000             2.500
   25     2899.113 ||      -0.062               0.046             0.000
   26     2907.301 ||      -0.944              -1.188            -0.000
   27     2908.417 ||      -0.000               0.000             0.000
   28     3058.079 ||       0.107              -0.086            -0.000
   29     3125.716 ||      -0.000               0.000            -0.583
   30     3128.275 ||      -0.387               0.307             0.000
 ----------------------------------------------------------------------------



  
  
 ----------------------------------------------------------------------------
 Normal Eigenvalue ||           Projected Infra Red Intensities
  Mode   [cm**-1]  || [atomic units] [(debye/angs)**2] [(KM/mol)] [arbitrary]
 ------ ---------- || -------------- ----------------- ---------- -----------
    1      -76.246 ||    0.000000           0.000         0.000       0.000
    2       -0.000 ||    0.020135           0.465        19.628       5.143
    3       -0.000 ||    0.017021           0.393        16.593       4.348
    4       -0.000 ||    0.011209           0.259        10.927       2.863
    5        0.000 ||    0.007016           0.162         6.840       1.792
    6        0.000 ||    0.010178           0.235         9.922       2.600
    7        0.000 ||    0.007343           0.169         7.158       1.875
    8      121.594 ||    0.028560           0.659        27.842       7.295
    9      409.976 ||    0.000592           0.014         0.577       0.151
   10      609.044 ||    0.000000           0.000         0.000       0.000
   11      815.959 ||    0.003045           0.070         2.969       0.778
   12      865.988 ||    0.079019           1.823        77.032      20.183
   13      875.934 ||    0.002991           0.069         2.916       0.764
   14     1068.988 ||    0.015981           0.369        15.579       4.082
   15     1140.065 ||    0.004936           0.114         4.812       1.261
   16     1157.545 ||    0.397520           9.171       387.522     101.535
   17     1220.674 ||    0.026927           0.621        26.250       6.878
   18     1250.498 ||    0.001728           0.040         1.684       0.441
   19     1288.363 ||    0.000000           0.000         0.000       0.000
   20     1311.994 ||    0.000788           0.018         0.768       0.201
   21     1345.764 ||    0.042289           0.976        41.226      10.802
   22     1397.980 ||    0.027852           0.643        27.151       7.114
   23     1514.881 ||    0.072283           1.668        70.465      18.463
   24     2883.616 ||    0.270948           6.251       264.133      69.206
   25     2899.113 ||    0.000258           0.006         0.252       0.066
   26     2907.301 ||    0.099780           2.302        97.270      25.486
   27     2908.417 ||    0.000000           0.000         0.000       0.000
   28     3058.079 ||    0.000821           0.019         0.800       0.210
   29     3125.716 ||    0.014726           0.340        14.356       3.761
   30     3128.275 ||    0.010584           0.244        10.318       2.703
 ----------------------------------------------------------------------------






 ===============================================================================
      Negative Nuclear Hessian Mode    1  Eigenvalue =    -76.25 cm**(-1)
 -------------------------------------------------------------------------------
   Raw step length:  0.500 angstroms ;  The Raw step for this mode is:
    1 C                    6.0000    -0.02204626    -0.02774310    -0.00001092
    2 C                    6.0000    -0.00000000    -0.00000000     0.00001186
    3 C                    6.0000     0.02204626     0.02774310    -0.00001092
    4 H                    1.0000    -0.01657820     0.18270004     0.13389463
    5 H                    1.0000    -0.08983363    -0.11304642     0.00000541
    6 H                    1.0000     0.18164493     0.02511068    -0.13386055
    7 H                    1.0000    -0.00000000    -0.00000000     0.00003981
    8 H                    1.0000     0.08983363     0.11304642     0.00000541
    9 H                    1.0000     0.01657820    -0.18270004     0.13389463
   10 H                    1.0000    -0.18164493    -0.02511068    -0.13386055


  Geometry after  100.0% step for mode  1; Step length =  0.500 angstroms 
   Maximum component (any atom: x,y, or z) displacement:  0.345
    1 C                    6.0000    -0.26650596     0.01976845    -1.28015978
    2 C                    6.0000     0.25884663    -0.35256098     0.00001186
    3 C                    6.0000    -0.22241344     0.07525465     1.28013794
    4 H                    1.0000     0.59104817     0.63441167    -1.74042698
    5 H                    1.0000    -1.18941099     0.61419938    -1.27408325
    6 H                    1.0000    -0.26416213    -0.84868311    -2.00822636
    7 H                    1.0000     1.11927808    -1.03647287     0.00003981
    8 H                    1.0000    -1.00974373     0.84029223     1.27409408
    9 H                    1.0000     0.62420456     0.26901159     2.00821624
   10 H                    1.0000    -0.62745199    -0.89890447     1.74050526


  Geometry after -100.0% step for mode  1; Step length =  0.500 angstroms 
   Maximum component (any atom: x,y, or z) displacement:  0.345
    1 C                    6.0000    -0.22241344     0.07525465    -1.28013794
    2 C                    6.0000     0.25884663    -0.35256098    -0.00001186
    3 C                    6.0000    -0.26650596     0.01976845     1.28015978
    4 H                    1.0000     0.62420456     0.26901159    -2.00821624
    5 H                    1.0000    -1.00974373     0.84029223    -1.27409408
    6 H                    1.0000    -0.62745199    -0.89890447    -1.74050526
    7 H                    1.0000     1.11927808    -1.03647287    -0.00003981
    8 H                    1.0000    -1.18941099     0.61419938     1.27408325
    9 H                    1.0000     0.59104817     0.63441167     1.74042698
   10 H                    1.0000    -0.26416213    -0.84868311     2.00822636


  Geometry after   50.0% step for mode  1; Step length =  0.250 angstroms 
   Maximum component (any atom: x,y, or z) displacement:  0.173
    1 C                    6.0000    -0.25548283     0.03364000    -1.28015432
    2 C                    6.0000     0.25884663    -0.35256098     0.00000593
    3 C                    6.0000    -0.23343657     0.06138310     1.28014340
    4 H                    1.0000     0.59933726     0.54306165    -1.80737429
    5 H                    1.0000    -1.14449417     0.67072259    -1.27408596
    6 H                    1.0000    -0.35498459    -0.86123845    -1.94129608
    7 H                    1.0000     1.11927808    -1.03647287     0.00001990
    8 H                    1.0000    -1.05466054     0.78376902     1.27409137
    9 H                    1.0000     0.61591546     0.36036161     1.94126892
   10 H                    1.0000    -0.53662952    -0.88634913     1.80743554


  Geometry after  -50.0% step for mode  1; Step length =  0.250 angstroms 
   Maximum component (any atom: x,y, or z) displacement:  0.173
    1 C                    6.0000    -0.23343657     0.06138310    -1.28014340
    2 C                    6.0000     0.25884663    -0.35256098    -0.00000593
    3 C                    6.0000    -0.25548283     0.03364000     1.28015432
    4 H                    1.0000     0.61591546     0.36036161    -1.94126892
    5 H                    1.0000    -1.05466054     0.78376902    -1.27409137
    6 H                    1.0000    -0.53662952    -0.88634913    -1.80743554
    7 H                    1.0000     1.11927808    -1.03647287    -0.00001990
    8 H                    1.0000    -1.14449417     0.67072259     1.27408596
    9 H                    1.0000     0.59933726     0.54306165     1.80737429
   10 H                    1.0000    -0.35498459    -0.86123845     1.94129608


  Geometry after   57.9% step for mode  1; Step length =  0.290 angstroms 
   Maximum component (any atom: x,y, or z) displacement:  0.200
    1 C                    6.0000    -0.25723078     0.03144038    -1.28015519
    2 C                    6.0000     0.25884663    -0.35256098     0.00000687
    3 C                    6.0000    -0.23168863     0.06358272     1.28014254
    4 H                    1.0000     0.59802286     0.55754708    -1.79675842
    5 H                    1.0000    -1.15161666     0.66175967    -1.27408553
    6 H                    1.0000    -0.34058282    -0.85924755    -1.95190926
    7 H                    1.0000     1.11927808    -1.03647287     0.00002306
    8 H                    1.0000    -1.04753806     0.79273194     1.27409180
    9 H                    1.0000     0.61722987     0.34587618     1.95188480
   10 H                    1.0000    -0.55103130    -0.88834004     1.79682236


  Geometry after  -57.9% step for mode  1; Step length =  0.290 angstroms 
   Maximum component (any atom: x,y, or z) displacement:  0.200
    1 C                    6.0000    -0.23168863     0.06358272    -1.28014254
    2 C                    6.0000     0.25884663    -0.35256098    -0.00000687
    3 C                    6.0000    -0.25723078     0.03144038     1.28015519
    4 H                    1.0000     0.61722987     0.34587618    -1.95188480
    5 H                    1.0000    -1.04753806     0.79273194    -1.27409180
    6 H                    1.0000    -0.55103130    -0.88834004    -1.79682236
    7 H                    1.0000     1.11927808    -1.03647287    -0.00002306
    8 H                    1.0000    -1.15161666     0.66175967     1.27408553
    9 H                    1.0000     0.59802286     0.55754708     1.79675842
   10 H                    1.0000    -0.34058282    -0.85924755     1.95190926


  Geometry after   29.0% step for mode  1; Step length =  0.145 angstroms 
   Maximum component (any atom: x,y, or z) displacement:  0.100
    1 C                    6.0000    -0.25084524     0.03947597    -1.28015203
    2 C                    6.0000     0.25884663    -0.35256098     0.00000344
    3 C                    6.0000    -0.23807417     0.05554714     1.28014570
    4 H                    1.0000     0.60282461     0.50462935    -1.83554001
    5 H                    1.0000    -1.12559701     0.69450274    -1.27408710
    6 H                    1.0000    -0.39319494    -0.86652067    -1.91313753
    7 H                    1.0000     1.11927808    -1.03647287     0.00001153
    8 H                    1.0000    -1.07355771     0.75998887     1.27409023
    9 H                    1.0000     0.61242811     0.39879390     1.91310320
   10 H                    1.0000    -0.49841918    -0.88106692     1.83559409


  Geometry after  -29.0% step for mode  1; Step length =  0.145 angstroms 
   Maximum component (any atom: x,y, or z) displacement:  0.100
    1 C                    6.0000    -0.23807417     0.05554714    -1.28014570
    2 C                    6.0000     0.25884663    -0.35256098    -0.00000344
    3 C                    6.0000    -0.25084524     0.03947597     1.28015203
    4 H                    1.0000     0.61242811     0.39879390    -1.91310320
    5 H                    1.0000    -1.07355771     0.75998887    -1.27409023
    6 H                    1.0000    -0.49841918    -0.88106692    -1.83559409
    7 H                    1.0000     1.11927808    -1.03647287    -0.00001153
    8 H                    1.0000    -1.12559701     0.69450274     1.27408710
    9 H                    1.0000     0.60282461     0.50462935     1.83554001
   10 H                    1.0000    -0.39319494    -0.86652067     1.91313753


 vib:animation  F

 Task  times  cpu:        0.0s     wall:        0.0s


                                NWChem Input Module
                                -------------------


 Summary of allocated global arrays
-----------------------------------
  No active global arrays


MA_summarize_allocated_blocks: starting scan ...
MA_summarize_allocated_blocks: scan completed: 0 heap blocks, 0 stack blocks
MA usage statistics:

	allocation statistics:
					      heap	     stack
					      ----	     -----
	current number of blocks	         0	         0
	maximum number of blocks	        25	        58
	current total bytes		         0	         0
	maximum total bytes		   1180664	 278114328
	maximum total K-bytes		      1181	    278115
	maximum total M-bytes		         2	       279


                                     CITATION
                                     --------
                Please cite the following reference when publishing
                           results obtained with NWChem:

          E. Apra, E. J. Bylaska, W. A. de Jong, N. Govind, K. Kowalski,
       T. P. Straatsma, M. Valiev, H. J. J. van Dam, Y. Alexeev, J. Anchell,
       V. Anisimov, F. W. Aquino, R. Atta-Fynn, J. Autschbach, N. P. Bauman,
     J. C. Becca, D. E. Bernholdt, K. Bhaskaran-Nair, S. Bogatko, P. Borowski,
         J. Boschen, J. Brabec, A. Bruner, E. Cauet, Y. Chen, G. N. Chuev,
      C. J. Cramer, J. Daily, M. J. O. Deegan, T. H. Dunning Jr., M. Dupuis,
   K. G. Dyall, G. I. Fann, S. A. Fischer, A. Fonari, H. Fruchtl, L. Gagliardi,
      J. Garza, N. Gawande, S. Ghosh, K. Glaesemann, A. W. Gotz, J. Hammond,
       V. Helms, E. D. Hermes, K. Hirao, S. Hirata, M. Jacquelin, L. Jensen,
   B. G. Johnson, H. Jonsson, R. A. Kendall, M. Klemm, R. Kobayashi, V. Konkov,
      S. Krishnamoorthy, M. Krishnan, Z. Lin, R. D. Lins, R. J. Littlefield,
      A. J. Logsdail, K. Lopata, W. Ma, A. V. Marenich, J. Martin del Campo,
   D. Mejia-Rodriguez, J. E. Moore, J. M. Mullin, T. Nakajima, D. R. Nascimento,
    J. A. Nichols, P. J. Nichols, J. Nieplocha, A. Otero-de-la-Roza, B. Palmer,
    A. Panyala, T. Pirojsirikul, B. Peng, R. Peverati, J. Pittner, L. Pollack,
   R. M. Richard, P. Sadayappan, G. C. Schatz, W. A. Shelton, D. W. Silverstein,
   D. M. A. Smith, T. A. Soares, D. Song, M. Swart, H. L. Taylor, G. S. Thomas,
            V. Tipparaju, D. G. Truhlar, K. Tsemekhman, T. Van Voorhis,
      A. Vazquez-Mayagoitia, P. Verma, O. Villa, A. Vishnu, K. D. Vogiatzis,
        D. Wang, J. H. Weare, M. J. Williamson, T. L. Windus, K. Wolinski,
        A. T. Wong, Q. Wu, C. Yang, Q. Yu, M. Zacharias, Z. Zhang, Y. Zhao,
                                and R. J. Harrison
                        "NWChem: Past, present, and future
                         J. Chem. Phys. 152, 184102 (2020)
                               doi:10.1063/5.0004997

                                      AUTHORS
                                      -------
  E. Apra, E. J. Bylaska, N. Govind, K. Kowalski, M. Valiev, D. Mejia-Rodriguez,
       A. Kunitsa, N. P. Bauman, A. Panyala, W. A. de Jong, T. P. Straatsma,
        H. J. J. van Dam, D. Wang, T. L. Windus, J. Hammond, J. Autschbach,
    K. Bhaskaran-Nair, J. Brabec, K. Lopata, S. A. Fischer, S. Krishnamoorthy,
     M. Jacquelin, W. Ma, M. Klemm, O. Villa, Y. Chen, V. Anisimov, F. Aquino,
    S. Hirata, M. T. Hackler, Eric Hermes, L. Jensen, J. E. Moore, J. C. Becca,
      V. Konjkov, T. Risthaus, M. Malagoli, A. Marenich, A. Otero-de-la-Roza,
        J. Mullin, P. Nichols, R. Peverati, J. Pittner, Y. Zhao, P.-D. Fan,
        A. Fonari, M. J. Williamson, R. J. Harrison, J. R. Rehr, M. Dupuis,
     D. Silverstein, D. M. A. Smith, J. Nieplocha, V. Tipparaju, M. Krishnan,
     B. E. Van Kuiken, A. Vazquez-Mayagoitia, M. Swart, Q. Wu, T. Van Voorhis,
     A. A. Auer, M. Nooijen, L. D. Crosby, E. Brown, G. Cisneros, G. I. Fann,
   H. Fruchtl, J. Garza, K. Hirao, R. A. Kendall, J. A. Nichols, K. Tsemekhman,
    K. Wolinski, J. Anchell, D. E. Bernholdt, P. Borowski, T. Clark, D. Clerc,
   H. Dachsel, M. J. O. Deegan, K. Dyall, D. Elwood, E. Glendening, M. Gutowski,
   A. C. Hess, J. Jaffe, B. G. Johnson, J. Ju, R. Kobayashi, R. Kutteh, Z. Lin,
   R. Littlefield, X. Long, B. Meng, T. Nakajima, S. Niu, L. Pollack, M. Rosing,
   K. Glaesemann, G. Sandrone, M. Stave, H. Taylor, G. Thomas, J. H. van Lenthe,
                               A. T. Wong, Z. Zhang.

 Total times  cpu:      651.3s     wall:      653.5s
