 argument  1 = h2-sto-3g.nw



============================== echo of input deck ==============================
# HF/STO-3G calculation on H2
#
# This calculation reproduces the results of Joseph W. Ochterski in
# "Thermochemistry in Gaussian", June 2, 2000. See:
# https://gaussian.com/wp-content/uploads/dl/thermo.pdf [accessed Oct 21, 2023]
# The thermochemistry results in the output can be compared to the
# results Ochterski listed in Table 1. This should help with calculating
# free energies from NWChem outputs.
#
echo

geometry
  H 0 0 -0.5
  H 0 0  0.5
end

basis
  * library sto-3g
end

task scf optimize
task scf frequencies
================================================================================


                                         
                                         


             Northwest Computational Chemistry Package (NWChem) 7.0.1
             --------------------------------------------------------


                    Environmental Molecular Sciences Laboratory
                       Pacific Northwest National Laboratory
                                Richland, WA 99352

                              Copyright (c) 1994-2020
                       Pacific Northwest National Laboratory
                            Battelle Memorial Institute

             NWChem is an open-source computational chemistry package
                        distributed under the terms of the
                      Educational Community License (ECL) 2.0
             A copy of the license is included with this distribution
                              in the LICENSE.TXT file

                                  ACKNOWLEDGMENT
                                  --------------

            This software and its documentation were developed at the
            EMSL at Pacific Northwest National Laboratory, a multiprogram
            national laboratory, operated for the U.S. Department of Energy
            by Battelle under Contract Number DE-AC05-76RL01830. Support
            for this work was provided by the Department of Energy Office
            of Biological and Environmental Research, Office of Basic
            Energy Sciences, and the Office of Advanced Scientific Computing.


           Job information
           ---------------

    hostname        = erato
    program         = ../../../../bin/LINUX64/nwchem
    date            = Fri Oct 21 18:14:54 2022

    compiled        = Fri_Jul_08_12:50:28_2022
    source          = /home/hvandam/nwchem-1-srp-hpc
    nwchem branch   = 7.0.0
    nwchem revision = nwchem_on_git-4025-gba861c8c44
    ga revision     = 5.8.1
    use scalapack   = F
    input           = h2-sto-3g.nw
    prefix          = h2-sto-3g.
    data base       = ./h2-sto-3g.db
    status          = startup
    nproc           =        1
    time left       =     -1s



           Memory information
           ------------------

    heap     =   26214398 doubles =    200.0 Mbytes
    stack    =   26214395 doubles =    200.0 Mbytes
    global   =   52428800 doubles =    400.0 Mbytes (distinct from heap & stack)
    total    =  104857593 doubles =    800.0 Mbytes
    verify   = yes
    hardfail = no 


           Directory information
           ---------------------

  0 permanent = .
  0 scratch   = .




                                NWChem Input Module
                                -------------------



 Scaling coordinates for geometry "geometry" by  1.889725989
 (inverse scale =  0.529177249)

 ORDER OF PRIMARY AXIS IS BEING SET TO 4
 D4H symmetry detected

          ------
          auto-z
          ------
     1 autoz failed with cvr_scaling = 1.2 changing to 1.3
  no constraints, skipping    0.0000000000000000     
  no constraints, skipping    0.0000000000000000     


                             Geometry "geometry" -> ""
                             -------------------------

 Output coordinates in angstroms (scale by  1.889725989 to convert to a.u.)

  No.       Tag          Charge          X              Y              Z
 ---- ---------------- ---------- -------------- -------------- --------------
    1 H                    1.0000     0.00000000     0.00000000    -0.50000000
    2 H                    1.0000     0.00000000     0.00000000     0.50000000

      Atomic Mass 
      ----------- 

      H                  1.007825


 Effective nuclear repulsion energy (a.u.)       0.5291772490

            Nuclear Dipole moment (a.u.) 
            ----------------------------
        X                 Y               Z
 ---------------- ---------------- ----------------
     0.0000000000     0.0000000000     0.0000000000

      Symmetry information
      --------------------

 Group name             D4h       
 Group number             28
 Group order              16
 No. of unique centers     1

      Symmetry unique atoms

     1



                                Z-matrix (autoz)
                                -------- 

 Units are Angstrom for bonds and degrees for angles

      Type          Name      I     J     K     L     M      Value
      ----------- --------  ----- ----- ----- ----- ----- ----------
    1 Stretch                  1     2                       1.00000


            XYZ format geometry
            -------------------
     2
 geometry
 H                     0.00000000     0.00000000    -0.50000000
 H                     0.00000000     0.00000000     0.50000000



 Summary of "ao basis" -> "" (cartesian)
 ------------------------------------------------------------------------------
       Tag                 Description            Shells   Functions and Types
 ---------------- ------------------------------  ------  ---------------------
 *                           sto-3g                   on all atoms 




                           NWChem Geometry Optimization
                           ----------------------------


  no constraints, skipping    0.0000000000000000     
 maximum gradient threshold         (gmax) =   0.000450
 rms gradient threshold             (grms) =   0.000300
 maximum cartesian step threshold   (xmax) =   0.001800
 rms cartesian step threshold       (xrms) =   0.001200
 fixed trust radius                (trust) =   0.300000
 maximum step size to saddle      (sadstp) =   0.100000
 energy precision                  (eprec) =   1.0D-07
 maximum number of steps          (nptopt) =   40
 initial hessian option           (inhess) =    0
 line search option               (linopt) =    1
 hessian update option            (modupd) =    1
 saddle point option              (modsad) =    0
 initial eigen-mode to follow     (moddir) =    0
 initial variable to follow       (vardir) =    0
 follow first negative mode     (firstneg) =    T
 apply conjugacy                    (opcg) =    F
 source of zmatrix                         =   autoz   


          -------------------
          Energy Minimization
          -------------------


 Names of Z-matrix variables 
    1         

 Variables with the same non-blank name are constrained to be equal


 Using old Hessian from previous optimization

          --------
          Step   0
          --------


                         Geometry "geometry" -> "geometry"
                         ---------------------------------

 Output coordinates in angstroms (scale by  1.889725989 to convert to a.u.)

  No.       Tag          Charge          X              Y              Z
 ---- ---------------- ---------- -------------- -------------- --------------
    1 H                    1.0000     0.00000000     0.00000000    -0.50000000
    2 H                    1.0000     0.00000000     0.00000000     0.50000000

      Atomic Mass 
      ----------- 

      H                  1.007825


 Effective nuclear repulsion energy (a.u.)       0.5291772490

            Nuclear Dipole moment (a.u.) 
            ----------------------------
        X                 Y               Z
 ---------------- ---------------- ----------------
     0.0000000000     0.0000000000     0.0000000000

      Symmetry information
      --------------------

 Group name             D4h       
 Group number             28
 Group order              16
 No. of unique centers     1

      Symmetry unique atoms

     1

                      Basis "ao basis" -> "ao basis" (cartesian)
                      -----
  H (Hydrogen)
  ------------
            Exponent  Coefficients 
       -------------- ---------------------------------------------------------
  1 S  3.42525091E+00  0.154329
  1 S  6.23913730E-01  0.535328
  1 S  1.68855400E-01  0.444635



 Summary of "ao basis" -> "ao basis" (cartesian)
 ------------------------------------------------------------------------------
       Tag                 Description            Shells   Functions and Types
 ---------------- ------------------------------  ------  ---------------------
 H                           sto-3g                  1        1   1s


                                 NWChem SCF Module
                                 -----------------



  ao basis        = "ao basis"
  functions       =     2
  atoms           =     2
  closed shells   =     1
  open shells     =     0
  charge          =   0.00
  wavefunction    = RHF 
  input vectors   = atomic
  output vectors  = ./h2-sto-3g.movecs
  use symmetry    = T
  symmetry adapt  = T


 Summary of "ao basis" -> "ao basis" (cartesian)
 ------------------------------------------------------------------------------
       Tag                 Description            Shells   Functions and Types
 ---------------- ------------------------------  ------  ---------------------
 H                           sto-3g                  1        1   1s


      Symmetry analysis of basis
      --------------------------

        a1g         1
        a1u         0
        a2g         0
        a2u         1
        b1g         0
        b1u         0
        b2g         0
        b2u         0
        eg          0
        eu          0


 Forming initial guess at       0.1s


      Superposition of Atomic Density Guess
      -------------------------------------

 Sum of atomic energies:          -0.93316370

      Non-variational initial energy
      ------------------------------

 Total energy =      -0.643404
 1-e energy   =      -1.958993
 2-e energy   =       0.786411
 HOMO         =      -0.378648
 LUMO         =       0.358422


      Symmetry analysis of molecular orbitals - initial
      -------------------------------------------------

  Numbering of irreducible representations: 

     1 a1g         2 a1u         3 a2g         4 a2u         5 b1g     
     6 b1u         7 b2g         8 b2u         9 eg         10 eu      

  Orbital symmetries:

     1 a1g         2 a2u     


 Starting SCF solution at       0.1s



 ----------------------------------------------
         Quadratically convergent ROHF

 Convergence threshold     :          1.000E-04
 Maximum no. of iterations :           30
 Final Fock-matrix accuracy:          1.000E-07
 ----------------------------------------------


 #quartets = 4.000D+00 #integrals = 4.000D+00 #direct =  0.0% #cached =100.0%


 Integral file          = ./h2-sto-3g.aoints.0
 Record size in doubles =    65536    No. of integs per rec  =    43688
 Max. records in memory =        2    Max. records in file   =  1055217
 No. of bits per label  =        8    No. of bits per value  =       64


              iter       energy          gnorm     gmax       time
             ----- ------------------- --------- --------- --------
                 1       -1.0661086695  0.00D+00  0.00D+00      0.0


       Final RHF  results 
       ------------------ 

         Total SCF energy =     -1.066108669519
      One-electron energy =     -2.221688430812
      Two-electron energy =      0.626402512293
 Nuclear repulsion energy =      0.529177249000

        Time for solution =      0.0s



       Symmetry analysis of molecular orbitals - final
       -----------------------------------------------

  Numbering of irreducible representations: 

     1 a1g         2 a1u         3 a2g         4 a2u         5 b1g     
     6 b1u         7 b2g         8 b2u         9 eg         10 eu      

  Orbital symmetries:

     1 a1g         2 a2u     

             Final eigenvalues
             -----------------

              1      
    1   -0.4844
    2    0.4575

                       ROHF Final Molecular Orbital Analysis
                       -------------------------------------

 Vector    1  Occ=2.000000D+00  E=-4.844417D-01  Symmetry=a1g
              MO Center=  0.0D+00,  0.0D+00,  0.0D+00, r^2= 7.7D-01
   Bfn.  Coefficient  Atom+Function         Bfn.  Coefficient  Atom+Function  
  ----- ------------  ---------------      ----- ------------  ---------------
     1      0.578028  1 H  s                  2      0.578028  2 H  s          

 Vector    2  Occ=0.000000D+00  E= 4.575020D-01  Symmetry=a2u
              MO Center=  0.0D+00,  0.0D+00,  0.0D+00, r^2= 8.7D-01
   Bfn.  Coefficient  Atom+Function         Bfn.  Coefficient  Atom+Function  
  ----- ------------  ---------------      ----- ------------  ---------------
     1      0.996503  1 H  s                  2     -0.996503  2 H  s          


 center of mass
 --------------
 x =   0.00000000 y =   0.00000000 z =   0.00000000

 moments of inertia (a.u.)
 ------------------
           1.799503945078           0.000000000000           0.000000000000
           0.000000000000           1.799503945078           0.000000000000
           0.000000000000           0.000000000000           0.000000000000

  Mulliken analysis of the total density
  --------------------------------------

    Atom       Charge   Shell Charges
 -----------   ------   -------------------------------------------------------
    1 H    1     1.00   1.00
    2 H    1     1.00   1.00

       Multipole analysis of the density wrt the origin
       ------------------------------------------------

     L   x y z        total         open         nuclear
     -   - - -        -----         ----         -------
     0   0 0 0     -0.000000      0.000000      2.000000

     1   1 0 0      0.000000      0.000000      0.000000
     1   0 1 0      0.000000      0.000000      0.000000
     1   0 0 1      0.000000      0.000000      0.000000

     2   2 0 0     -1.399295      0.000000      0.000000
     2   1 1 0      0.000000      0.000000      0.000000
     2   1 0 1      0.000000      0.000000      0.000000
     2   0 2 0     -1.399295      0.000000      0.000000
     2   0 1 1      0.000000      0.000000      0.000000
     2   0 0 2     -0.922815      0.000000      1.785532


 Parallel integral file used       1 records with       0 large values

                              NWChem Gradients Module
                              -----------------------



  wavefunction    =   RHF     

  Using symmetry


                         RHF ENERGY GRADIENTS

    atom               coordinates                        gradient
                 x          y          z           x          y          z
   1 H       0.000000   0.000000  -0.944863    0.000000   0.000000  -0.148572
   2 H       0.000000   0.000000   0.944863    0.000000   0.000000   0.148572

                 ----------------------------------------
                 |  Time  |  1-e(secs)   |  2-e(secs)   |
                 ----------------------------------------
                 |  CPU   |       0.00   |       0.00   |
                 ----------------------------------------
                 |  WALL  |       0.00   |       0.00   |
                 ----------------------------------------
  no constraints, skipping    0.0000000000000000     

@ Step       Energy      Delta E   Gmax     Grms     Xrms     Xmax   Walltime
@ ---- ---------------- -------- -------- -------- -------- -------- --------
@    0      -1.06610867  0.0D+00  0.14857  0.14857  0.00000  0.00000      0.2
                                                                    



                                Z-matrix (autoz)
                                -------- 

 Units are Angstrom for bonds and degrees for angles

      Type          Name      I     J     K     L     M      Value     Gradient
      ----------- --------  ----- ----- ----- ----- ----- ---------- ----------
    1 Stretch                  1     2                       1.00000    0.14857

  no constraints, skipping    0.0000000000000000     
  no constraints, skipping    0.0000000000000000     
  no constraints, skipping    0.0000000000000000     
                                 NWChem SCF Module
                                 -----------------



  ao basis        = "ao basis"
  functions       =     2
  atoms           =     2
  closed shells   =     1
  open shells     =     0
  charge          =   0.00
  wavefunction    = RHF 
  input vectors   = ./h2-sto-3g.movecs
  output vectors  = ./h2-sto-3g.movecs
  use symmetry    = T
  symmetry adapt  = T


 Summary of "ao basis" -> "ao basis" (cartesian)
 ------------------------------------------------------------------------------
       Tag                 Description            Shells   Functions and Types
 ---------------- ------------------------------  ------  ---------------------
 H                           sto-3g                  1        1   1s


      Symmetry analysis of basis
      --------------------------

        a1g         1
        a1u         0
        a2g         0
        a2u         1
        b1g         0
        b1u         0
        b2g         0
        b2u         0
        eg          0
        eu          0


 Forming initial guess at       0.2s


 Loading old vectors from job with title :




      Symmetry analysis of molecular orbitals - initial
      -------------------------------------------------

  Numbering of irreducible representations: 

     1 a1g         2 a1u         3 a2g         4 a2u         5 b1g     
     6 b1u         7 b2g         8 b2u         9 eg         10 eu      

  Orbital symmetries:

     1 a1g         2 a2u     


 Starting SCF solution at       0.2s



 ----------------------------------------------
         Quadratically convergent ROHF

 Convergence threshold     :          1.000E-04
 Maximum no. of iterations :           30
 Final Fock-matrix accuracy:          1.000E-07
 ----------------------------------------------


 #quartets = 4.000D+00 #integrals = 4.000D+00 #direct =  0.0% #cached =100.0%


 Integral file          = ./h2-sto-3g.aoints.0
 Record size in doubles =    65536    No. of integs per rec  =    43688
 Max. records in memory =        2    Max. records in file   =  1055217
 No. of bits per label  =        8    No. of bits per value  =       64


              iter       energy          gnorm     gmax       time
             ----- ------------------- --------- --------- --------
                 1       -1.0999157464  0.00D+00  0.00D+00      0.1


       Final RHF  results 
       ------------------ 

         Total SCF energy =     -1.099915746401
      One-electron energy =     -2.364408974908
      Two-electron energy =      0.651416494351
 Nuclear repulsion energy =      0.613076734157

        Time for solution =      0.0s



       Symmetry analysis of molecular orbitals - final
       -----------------------------------------------

  Numbering of irreducible representations: 

     1 a1g         2 a1u         3 a2g         4 a2u         5 b1g     
     6 b1u         7 b2g         8 b2u         9 eg         10 eu      

  Orbital symmetries:

     1 a1g         2 a2u     

             Final eigenvalues
             -----------------

              1      
    1   -0.5308
    2    0.5578

                       ROHF Final Molecular Orbital Analysis
                       -------------------------------------

 Vector    1  Occ=2.000000D+00  E=-5.307880D-01  Symmetry=a1g
              MO Center=  0.0D+00,  0.0D+00,  0.0D+00, r^2= 7.1D-01
   Bfn.  Coefficient  Atom+Function         Bfn.  Coefficient  Atom+Function  
  ----- ------------  ---------------      ----- ------------  ---------------
     1      0.562482  1 H  s                  2      0.562482  2 H  s          

 Vector    2  Occ=0.000000D+00  E= 5.577519D-01  Symmetry=a2u
              MO Center=  0.0D+00,  0.0D+00,  0.0D+00, r^2= 8.0D-01
   Bfn.  Coefficient  Atom+Function         Bfn.  Coefficient  Atom+Function  
  ----- ------------  ---------------      ----- ------------  ---------------
     1      1.091545  1 H  s                  2     -1.091545  2 H  s          


 center of mass
 --------------
 x =   0.00000000 y =   0.00000000 z =   0.00000000

 moments of inertia (a.u.)
 ------------------
           1.340681019711           0.000000000000           0.000000000000
           0.000000000000           1.340681019711           0.000000000000
           0.000000000000           0.000000000000           0.000000000000

  Mulliken analysis of the total density
  --------------------------------------

    Atom       Charge   Shell Charges
 -----------   ------   -------------------------------------------------------
    1 H    1     1.00   1.00
    2 H    1     1.00   1.00

       Multipole analysis of the density wrt the origin
       ------------------------------------------------

     L   x y z        total         open         nuclear
     -   - - -        -----         ----         -------
     0   0 0 0     -0.000000      0.000000      2.000000

     1   1 0 0      0.000000      0.000000      0.000000
     1   0 1 0      0.000000      0.000000      0.000000
     1   0 0 1      0.000000      0.000000      0.000000

     2   2 0 0     -1.387226      0.000000      0.000000
     2   1 1 0      0.000000      0.000000      0.000000
     2   1 0 1      0.000000      0.000000      0.000000
     2   0 2 0     -1.387226      0.000000      0.000000
     2   0 1 1      0.000000      0.000000      0.000000
     2   0 0 2     -0.994454      0.000000      1.330272


 Parallel integral file used       1 records with       0 large values

 Line search: 
     step= 1.00 grad=-3.8D-02 hess= 4.6D-03 energy=     -1.099916 mode=restrict
 new step= 4.00                   predicted energy=     -1.145959
  no constraints, skipping    0.0000000000000000     
  no constraints, skipping    0.0000000000000000     
  no constraints, skipping    0.0000000000000000     

          --------
          Step   1
          --------


                         Geometry "geometry" -> "geometry"
                         ---------------------------------

 Output coordinates in angstroms (scale by  1.889725989 to convert to a.u.)

  No.       Tag          Charge          X              Y              Z
 ---- ---------------- ---------- -------------- -------------- --------------
    1 H                    1.0000     0.00000000     0.00000000    -0.22630022
    2 H                    1.0000     0.00000000     0.00000000     0.22630022

      Atomic Mass 
      ----------- 

      H                  1.007825


 Effective nuclear repulsion energy (a.u.)       1.1691929876

            Nuclear Dipole moment (a.u.) 
            ----------------------------
        X                 Y               Z
 ---------------- ---------------- ----------------
     0.0000000000     0.0000000000     0.0000000000

      Symmetry information
      --------------------

 Group name             D4h       
 Group number             28
 Group order              16
 No. of unique centers     1

      Symmetry unique atoms

     1

                                 NWChem SCF Module
                                 -----------------



  ao basis        = "ao basis"
  functions       =     2
  atoms           =     2
  closed shells   =     1
  open shells     =     0
  charge          =   0.00
  wavefunction    = RHF 
  input vectors   = ./h2-sto-3g.movecs
  output vectors  = ./h2-sto-3g.movecs
  use symmetry    = T
  symmetry adapt  = T


 Summary of "ao basis" -> "ao basis" (cartesian)
 ------------------------------------------------------------------------------
       Tag                 Description            Shells   Functions and Types
 ---------------- ------------------------------  ------  ---------------------
 H                           sto-3g                  1        1   1s


      Symmetry analysis of basis
      --------------------------

        a1g         1
        a1u         0
        a2g         0
        a2u         1
        b1g         0
        b1u         0
        b2g         0
        b2u         0
        eg          0
        eu          0


 Forming initial guess at       0.2s


 Loading old vectors from job with title :




      Symmetry analysis of molecular orbitals - initial
      -------------------------------------------------

  Numbering of irreducible representations: 

     1 a1g         2 a1u         3 a2g         4 a2u         5 b1g     
     6 b1u         7 b2g         8 b2u         9 eg         10 eu      

  Orbital symmetries:

     1 a1g         2 a2u     


 Starting SCF solution at       0.2s



 ----------------------------------------------
         Quadratically convergent ROHF

 Convergence threshold     :          1.000E-04
 Maximum no. of iterations :           30
 Final Fock-matrix accuracy:          1.000E-07
 ----------------------------------------------


 #quartets = 4.000D+00 #integrals = 4.000D+00 #direct =  0.0% #cached =100.0%


 Integral file          = ./h2-sto-3g.aoints.0
 Record size in doubles =    65536    No. of integs per rec  =    43688
 Max. records in memory =        2    Max. records in file   =  1055217
 No. of bits per label  =        8    No. of bits per value  =       64


              iter       energy          gnorm     gmax       time
             ----- ------------------- --------- --------- --------
                 1       -0.9909938388  0.00D+00  0.00D+00      0.1


       Final RHF  results 
       ------------------ 

         Total SCF energy =     -0.990993838830
      One-electron energy =     -2.888227464677
      Two-electron energy =      0.728040638225
 Nuclear repulsion energy =      1.169192987622

        Time for solution =      0.0s



       Symmetry analysis of molecular orbitals - final
       -----------------------------------------------

  Numbering of irreducible representations: 

     1 a1g         2 a1u         3 a2g         4 a2u         5 b1g     
     6 b1u         7 b2g         8 b2u         9 eg         10 eu      

  Orbital symmetries:

     1 a1g         2 a2u     

             Final eigenvalues
             -----------------

              1      
    1   -0.7161
    2    1.0700

                       ROHF Final Molecular Orbital Analysis
                       -------------------------------------

 Vector    1  Occ=2.000000D+00  E=-7.160731D-01  Symmetry=a1g
              MO Center=  0.0D+00,  0.0D+00,  0.0D+00, r^2= 5.9D-01
   Bfn.  Coefficient  Atom+Function         Bfn.  Coefficient  Atom+Function  
  ----- ------------  ---------------      ----- ------------  ---------------
     1      0.520815  1 H  s                  2      0.520815  2 H  s          

 Vector    2  Occ=0.000000D+00  E= 1.069983D+00  Symmetry=a2u
              MO Center=  0.0D+00,  0.0D+00,  0.0D+00, r^2= 6.3D-01
   Bfn.  Coefficient  Atom+Function         Bfn.  Coefficient  Atom+Function  
  ----- ------------  ---------------      ----- ------------  ---------------
     1      1.786458  1 H  s                  2     -1.786458  2 H  s          


 center of mass
 --------------
 x =   0.00000000 y =   0.00000000 z =   0.00000000

 moments of inertia (a.u.)
 ------------------
           0.368623253256           0.000000000000           0.000000000000
           0.000000000000           0.368623253256           0.000000000000
           0.000000000000           0.000000000000           0.000000000000

  Mulliken analysis of the total density
  --------------------------------------

    Atom       Charge   Shell Charges
 -----------   ------   -------------------------------------------------------
    1 H    1     1.00   1.00
    2 H    1     1.00   1.00

       Multipole analysis of the density wrt the origin
       ------------------------------------------------

     L   x y z        total         open         nuclear
     -   - - -        -----         ----         -------
     0   0 0 0     -0.000000      0.000000      2.000000

     1   1 0 0      0.000000      0.000000      0.000000
     1   0 1 0      0.000000      0.000000      0.000000
     1   0 0 1      0.000000      0.000000      0.000000

     2   2 0 0     -1.336324      0.000000      0.000000
     2   1 1 0      0.000000      0.000000      0.000000
     2   1 0 1      0.000000      0.000000      0.000000
     2   0 2 0     -1.336324      0.000000      0.000000
     2   0 1 1      0.000000      0.000000      0.000000
     2   0 0 2     -1.201928      0.000000      0.365761


 Parallel integral file used       1 records with       0 large values

                              NWChem Gradients Module
                              -----------------------



  wavefunction    =   RHF     

  Using symmetry


                         RHF ENERGY GRADIENTS

    atom               coordinates                        gradient
                 x          y          z           x          y          z
   1 H       0.000000   0.000000  -0.427645    0.000000   0.000000   0.700903
   2 H       0.000000   0.000000   0.427645    0.000000   0.000000  -0.700903

                 ----------------------------------------
                 |  Time  |  1-e(secs)   |  2-e(secs)   |
                 ----------------------------------------
                 |  CPU   |       0.00   |       0.00   |
                 ----------------------------------------
                 |  WALL  |       0.00   |       0.00   |
                 ----------------------------------------
  no constraints, skipping    0.0000000000000000     

  Step       Energy      Delta E   Gmax     Grms     Xrms     Xmax   Walltime
  ---- ---------------- -------- -------- -------- -------- -------- --------
@    1      -0.99099384  7.5D-02  0.70090  0.70090  0.29862  0.51722      0.2
                                                                    



                                Z-matrix (autoz)
                                -------- 

 Units are Angstrom for bonds and degrees for angles

      Type          Name      I     J     K     L     M      Value     Gradient
      ----------- --------  ----- ----- ----- ----- ----- ---------- ----------
    1 Stretch                  1     2                       0.45260   -0.70090

 Restricting large step in mode    1 eval= 8.2D-01 step= 8.5D-01 new= 3.0D-01
 Restricting overall step due to uphill motion.   alpha=  0.50
  no constraints, skipping    0.0000000000000000     
  no constraints, skipping    0.0000000000000000     
  no constraints, skipping    0.0000000000000000     
                                 NWChem SCF Module
                                 -----------------



  ao basis        = "ao basis"
  functions       =     2
  atoms           =     2
  closed shells   =     1
  open shells     =     0
  charge          =   0.00
  wavefunction    = RHF 
  input vectors   = ./h2-sto-3g.movecs
  output vectors  = ./h2-sto-3g.movecs
  use symmetry    = T
  symmetry adapt  = T


 Summary of "ao basis" -> "ao basis" (cartesian)
 ------------------------------------------------------------------------------
       Tag                 Description            Shells   Functions and Types
 ---------------- ------------------------------  ------  ---------------------
 H                           sto-3g                  1        1   1s


      Symmetry analysis of basis
      --------------------------

        a1g         1
        a1u         0
        a2g         0
        a2u         1
        b1g         0
        b1u         0
        b2g         0
        b2u         0
        eg          0
        eu          0


 Forming initial guess at       0.2s


 Loading old vectors from job with title :




      Symmetry analysis of molecular orbitals - initial
      -------------------------------------------------

  Numbering of irreducible representations: 

     1 a1g         2 a1u         3 a2g         4 a2u         5 b1g     
     6 b1u         7 b2g         8 b2u         9 eg         10 eu      

  Orbital symmetries:

     1 a1g         2 a2u     


 Starting SCF solution at       0.2s



 ----------------------------------------------
         Quadratically convergent ROHF

 Convergence threshold     :          1.000E-04
 Maximum no. of iterations :           30
 Final Fock-matrix accuracy:          1.000E-07
 ----------------------------------------------


 #quartets = 4.000D+00 #integrals = 4.000D+00 #direct =  0.0% #cached =100.0%


 Integral file          = ./h2-sto-3g.aoints.0
 Record size in doubles =    65536    No. of integs per rec  =    43688
 Max. records in memory =        2    Max. records in file   =  1055217
 No. of bits per label  =        8    No. of bits per value  =       64


              iter       energy          gnorm     gmax       time
             ----- ------------------- --------- --------- --------
                 1       -1.0679061671  0.00D+00  0.00D+00      0.1


       Final RHF  results 
       ------------------ 

         Total SCF energy =     -1.067906167077
      One-electron energy =     -2.776572255932
      Two-electron energy =      0.713929038758
 Nuclear repulsion energy =      0.994737050097

        Time for solution =      0.0s



       Symmetry analysis of molecular orbitals - final
       -----------------------------------------------

  Numbering of irreducible representations: 

     1 a1g         2 a1u         3 a2g         4 a2u         5 b1g     
     6 b1u         7 b2g         8 b2u         9 eg         10 eu      

  Orbital symmetries:

     1 a1g         2 a2u     

             Final eigenvalues
             -----------------

              1      
    1   -0.6744
    2    0.9374

                       ROHF Final Molecular Orbital Analysis
                       -------------------------------------

 Vector    1  Occ=2.000000D+00  E=-6.743571D-01  Symmetry=a1g
              MO Center=  0.0D+00,  0.0D+00,  0.0D+00, r^2= 6.1D-01
   Bfn.  Coefficient  Atom+Function         Bfn.  Coefficient  Atom+Function  
  ----- ------------  ---------------      ----- ------------  ---------------
     1      0.527805  1 H  s                  2      0.527805  2 H  s          

 Vector    2  Occ=0.000000D+00  E= 9.374430D-01  Symmetry=a2u
              MO Center=  0.0D+00,  0.0D+00,  0.0D+00, r^2= 6.6D-01
   Bfn.  Coefficient  Atom+Function         Bfn.  Coefficient  Atom+Function  
  ----- ------------  ---------------      ----- ------------  ---------------
     1      1.561095  1 H  s                  2     -1.561095  2 H  s          


 center of mass
 --------------
 x =   0.00000000 y =   0.00000000 z =   0.00000000

 moments of inertia (a.u.)
 ------------------
           0.509258801341           0.000000000000           0.000000000000
           0.000000000000           0.509258801341           0.000000000000
           0.000000000000           0.000000000000           0.000000000000

  Mulliken analysis of the total density
  --------------------------------------

    Atom       Charge   Shell Charges
 -----------   ------   -------------------------------------------------------
    1 H    1     1.00   1.00
    2 H    1     1.00   1.00

       Multipole analysis of the density wrt the origin
       ------------------------------------------------

     L   x y z        total         open         nuclear
     -   - - -        -----         ----         -------
     0   0 0 0     -0.000000      0.000000      2.000000

     1   1 0 0      0.000000      0.000000      0.000000
     1   0 1 0      0.000000      0.000000      0.000000
     1   0 0 1      0.000000      0.000000      0.000000

     2   2 0 0     -1.346874      0.000000      0.000000
     2   1 1 0      0.000000      0.000000      0.000000
     2   1 0 1      0.000000      0.000000      0.000000
     2   0 2 0     -1.346874      0.000000      0.000000
     2   0 1 1      0.000000      0.000000      0.000000
     2   0 0 2     -1.167147      0.000000      0.505305


 Parallel integral file used       1 records with       0 large values

 Line search: 
     step= 0.50 grad=-2.1D-01 hess= 1.1D-01 energy=     -1.067906 mode=downhill
 new step= 0.93                   predicted energy=     -1.088905
  no constraints, skipping    0.0000000000000000     
  no constraints, skipping    0.0000000000000000     
  no constraints, skipping    0.0000000000000000     

          --------
          Step   2
          --------


                         Geometry "geometry" -> "geometry"
                         ---------------------------------

 Output coordinates in angstroms (scale by  1.889725989 to convert to a.u.)

  No.       Tag          Charge          X              Y              Z
 ---- ---------------- ---------- -------------- -------------- --------------
    1 H                    1.0000     0.00000000     0.00000000    -0.30022266
    2 H                    1.0000     0.00000000     0.00000000     0.30022266

      Atomic Mass 
      ----------- 

      H                  1.007825


 Effective nuclear repulsion energy (a.u.)       0.8813079781

            Nuclear Dipole moment (a.u.) 
            ----------------------------
        X                 Y               Z
 ---------------- ---------------- ----------------
     0.0000000000     0.0000000000     0.0000000000

      Symmetry information
      --------------------

 Group name             D4h       
 Group number             28
 Group order              16
 No. of unique centers     1

      Symmetry unique atoms

     1

                                 NWChem SCF Module
                                 -----------------



  ao basis        = "ao basis"
  functions       =     2
  atoms           =     2
  closed shells   =     1
  open shells     =     0
  charge          =   0.00
  wavefunction    = RHF 
  input vectors   = ./h2-sto-3g.movecs
  output vectors  = ./h2-sto-3g.movecs
  use symmetry    = T
  symmetry adapt  = T


 Summary of "ao basis" -> "ao basis" (cartesian)
 ------------------------------------------------------------------------------
       Tag                 Description            Shells   Functions and Types
 ---------------- ------------------------------  ------  ---------------------
 H                           sto-3g                  1        1   1s


      Symmetry analysis of basis
      --------------------------

        a1g         1
        a1u         0
        a2g         0
        a2u         1
        b1g         0
        b1u         0
        b2g         0
        b2u         0
        eg          0
        eu          0


 Forming initial guess at       0.3s


 Loading old vectors from job with title :




      Symmetry analysis of molecular orbitals - initial
      -------------------------------------------------

  Numbering of irreducible representations: 

     1 a1g         2 a1u         3 a2g         4 a2u         5 b1g     
     6 b1u         7 b2g         8 b2u         9 eg         10 eu      

  Orbital symmetries:

     1 a1g         2 a2u     


 Starting SCF solution at       0.3s



 ----------------------------------------------
         Quadratically convergent ROHF

 Convergence threshold     :          1.000E-04
 Maximum no. of iterations :           30
 Final Fock-matrix accuracy:          1.000E-07
 ----------------------------------------------


 #quartets = 4.000D+00 #integrals = 4.000D+00 #direct =  0.0% #cached =100.0%


 Integral file          = ./h2-sto-3g.aoints.0
 Record size in doubles =    65536    No. of integs per rec  =    43688
 Max. records in memory =        2    Max. records in file   =  1055217
 No. of bits per label  =        8    No. of bits per value  =       64


              iter       energy          gnorm     gmax       time
             ----- ------------------- --------- --------- --------
                 1       -1.1012743299  0.00D+00  0.00D+00      0.1


       Final RHF  results 
       ------------------ 

         Total SCF energy =     -1.101274329928
      One-electron energy =     -2.683836561996
      Two-electron energy =      0.701254253996
 Nuclear repulsion energy =      0.881307978072

        Time for solution =      0.0s



       Symmetry analysis of molecular orbitals - final
       -----------------------------------------------

  Numbering of irreducible representations: 

     1 a1g         2 a1u         3 a2g         4 a2u         5 b1g     
     6 b1u         7 b2g         8 b2u         9 eg         10 eu      

  Orbital symmetries:

     1 a1g         2 a2u     

             Final eigenvalues
             -----------------

              1      
    1   -0.6407
    2    0.8375

                       ROHF Final Molecular Orbital Analysis
                       -------------------------------------

 Vector    1  Occ=2.000000D+00  E=-6.406640D-01  Symmetry=a1g
              MO Center=  0.0D+00,  0.0D+00,  0.0D+00, r^2= 6.3D-01
   Bfn.  Coefficient  Atom+Function         Bfn.  Coefficient  Atom+Function  
  ----- ------------  ---------------      ----- ------------  ---------------
     1      0.534352  1 H  s                  2      0.534352  2 H  s          

 Vector    2  Occ=0.000000D+00  E= 8.374766D-01  Symmetry=a2u
              MO Center=  0.0D+00,  0.0D+00,  0.0D+00, r^2= 6.9D-01
   Bfn.  Coefficient  Atom+Function         Bfn.  Coefficient  Atom+Function  
  ----- ------------  ---------------      ----- ------------  ---------------
     1      1.417378  1 H  s                  2     -1.417378  2 H  s          


 center of mass
 --------------
 x =   0.00000000 y =   0.00000000 z =   0.00000000

 moments of inertia (a.u.)
 ------------------
           0.648783398515           0.000000000000           0.000000000000
           0.000000000000           0.648783398515           0.000000000000
           0.000000000000           0.000000000000           0.000000000000

  Mulliken analysis of the total density
  --------------------------------------

    Atom       Charge   Shell Charges
 -----------   ------   -------------------------------------------------------
    1 H    1     1.00   1.00
    2 H    1     1.00   1.00

       Multipole analysis of the density wrt the origin
       ------------------------------------------------

     L   x y z        total         open         nuclear
     -   - - -        -----         ----         -------
     0   0 0 0     -0.000000      0.000000      2.000000

     1   1 0 0      0.000000      0.000000      0.000000
     1   0 1 0      0.000000      0.000000      0.000000
     1   0 0 1      0.000000      0.000000      0.000000

     2   2 0 0     -1.355966      0.000000      0.000000
     2   1 1 0      0.000000      0.000000      0.000000
     2   1 0 1      0.000000      0.000000      0.000000
     2   0 2 0     -1.355966      0.000000      0.000000
     2   0 1 1      0.000000      0.000000      0.000000
     2   0 0 2     -1.134158      0.000000      0.643746


 Parallel integral file used       1 records with       0 large values

                              NWChem Gradients Module
                              -----------------------



  wavefunction    =   RHF     

  Using symmetry


                         RHF ENERGY GRADIENTS

    atom               coordinates                        gradient
                 x          y          z           x          y          z
   1 H       0.000000   0.000000  -0.567339    0.000000   0.000000   0.173139
   2 H       0.000000   0.000000   0.567339    0.000000   0.000000  -0.173139

                 ----------------------------------------
                 |  Time  |  1-e(secs)   |  2-e(secs)   |
                 ----------------------------------------
                 |  CPU   |       0.00   |       0.00   |
                 ----------------------------------------
                 |  WALL  |       0.00   |       0.00   |
                 ----------------------------------------
  no constraints, skipping    0.0000000000000000     

  Step       Energy      Delta E   Gmax     Grms     Xrms     Xmax   Walltime
  ---- ---------------- -------- -------- -------- -------- -------- --------
@    2      -1.10127433 -1.1D-01  0.17314  0.17314  0.08065  0.13969      0.3
                                                                    



                                Z-matrix (autoz)
                                -------- 

 Units are Angstrom for bonds and degrees for angles

      Type          Name      I     J     K     L     M      Value     Gradient
      ----------- --------  ----- ----- ----- ----- ----- ---------- ----------
    1 Stretch                  1     2                       0.60045   -0.17314

 Restricting overall step due to uphill motion.   alpha=  0.90
  no constraints, skipping    0.0000000000000000     
  no constraints, skipping    0.0000000000000000     
  no constraints, skipping    0.0000000000000000     
                                 NWChem SCF Module
                                 -----------------



  ao basis        = "ao basis"
  functions       =     2
  atoms           =     2
  closed shells   =     1
  open shells     =     0
  charge          =   0.00
  wavefunction    = RHF 
  input vectors   = ./h2-sto-3g.movecs
  output vectors  = ./h2-sto-3g.movecs
  use symmetry    = T
  symmetry adapt  = T


 Summary of "ao basis" -> "ao basis" (cartesian)
 ------------------------------------------------------------------------------
       Tag                 Description            Shells   Functions and Types
 ---------------- ------------------------------  ------  ---------------------
 H                           sto-3g                  1        1   1s


      Symmetry analysis of basis
      --------------------------

        a1g         1
        a1u         0
        a2g         0
        a2u         1
        b1g         0
        b1u         0
        b2g         0
        b2u         0
        eg          0
        eu          0


 Forming initial guess at       0.3s


 Loading old vectors from job with title :




      Symmetry analysis of molecular orbitals - initial
      -------------------------------------------------

  Numbering of irreducible representations: 

     1 a1g         2 a1u         3 a2g         4 a2u         5 b1g     
     6 b1u         7 b2g         8 b2u         9 eg         10 eu      

  Orbital symmetries:

     1 a1g         2 a2u     


 Starting SCF solution at       0.3s



 ----------------------------------------------
         Quadratically convergent ROHF

 Convergence threshold     :          1.000E-04
 Maximum no. of iterations :           30
 Final Fock-matrix accuracy:          1.000E-07
 ----------------------------------------------


 #quartets = 4.000D+00 #integrals = 4.000D+00 #direct =  0.0% #cached =100.0%


 Integral file          = ./h2-sto-3g.aoints.0
 Record size in doubles =    65536    No. of integs per rec  =    43688
 Max. records in memory =        2    Max. records in file   =  1055217
 No. of bits per label  =        8    No. of bits per value  =       64


              iter       energy          gnorm     gmax       time
             ----- ------------------- --------- --------- --------
                 1       -1.1120312813  0.00D+00  0.00D+00      0.1


       Final RHF  results 
       ------------------ 

         Total SCF energy =     -1.112031281267
      One-electron energy =     -2.626634564462
      Two-electron energy =      0.693023445074
 Nuclear repulsion energy =      0.821579838121

        Time for solution =      0.0s



       Symmetry analysis of molecular orbitals - final
       -----------------------------------------------

  Numbering of irreducible representations: 

     1 a1g         2 a1u         3 a2g         4 a2u         5 b1g     
     6 b1u         7 b2g         8 b2u         9 eg         10 eu      

  Orbital symmetries:

     1 a1g         2 a2u     

             Final eigenvalues
             -----------------

              1      
    1   -0.6203
    2    0.7804

                       ROHF Final Molecular Orbital Analysis
                       -------------------------------------

 Vector    1  Occ=2.000000D+00  E=-6.202938D-01  Symmetry=a1g
              MO Center=  0.0D+00,  0.0D+00,  0.0D+00, r^2= 6.4D-01
   Bfn.  Coefficient  Atom+Function         Bfn.  Coefficient  Atom+Function  
  ----- ------------  ---------------      ----- ------------  ---------------
     1      0.538738  1 H  s                  2      0.538738  2 H  s          

 Vector    2  Occ=0.000000D+00  E= 7.803701D-01  Symmetry=a2u
              MO Center=  0.0D+00,  0.0D+00,  0.0D+00, r^2= 7.0D-01
   Bfn.  Coefficient  Atom+Function         Bfn.  Coefficient  Atom+Function  
  ----- ------------  ---------------      ----- ------------  ---------------
     1      1.342839  1 H  s                  2     -1.342839  2 H  s          


 center of mass
 --------------
 x =   0.00000000 y =   0.00000000 z =   0.00000000

 moments of inertia (a.u.)
 ------------------
           0.746544302952           0.000000000000           0.000000000000
           0.000000000000           0.746544302952           0.000000000000
           0.000000000000           0.000000000000           0.000000000000

  Mulliken analysis of the total density
  --------------------------------------

    Atom       Charge   Shell Charges
 -----------   ------   -------------------------------------------------------
    1 H    1     1.00   1.00
    2 H    1     1.00   1.00

       Multipole analysis of the density wrt the origin
       ------------------------------------------------

     L   x y z        total         open         nuclear
     -   - - -        -----         ----         -------
     0   0 0 0     -0.000000      0.000000      2.000000

     1   1 0 0      0.000000      0.000000      0.000000
     1   0 1 0      0.000000      0.000000      0.000000
     1   0 0 1      0.000000      0.000000      0.000000

     2   2 0 0     -1.361654      0.000000      0.000000
     2   1 1 0      0.000000      0.000000      0.000000
     2   1 0 1      0.000000      0.000000      0.000000
     2   0 2 0     -1.361654      0.000000      0.000000
     2   0 1 1      0.000000      0.000000      0.000000
     2   0 0 2     -1.111992      0.000000      0.740748


 Parallel integral file used       1 records with       0 large values

 Line search: 
     step= 0.90 grad=-1.6D-02 hess= 4.4D-03 energy=     -1.112031 mode=downhill
 new step= 1.82                   predicted energy=     -1.115740
  no constraints, skipping    0.0000000000000000     
  no constraints, skipping    0.0000000000000000     
  no constraints, skipping    0.0000000000000000     

          --------
          Step   3
          --------


                         Geometry "geometry" -> "geometry"
                         ---------------------------------

 Output coordinates in angstroms (scale by  1.889725989 to convert to a.u.)

  No.       Tag          Charge          X              Y              Z
 ---- ---------------- ---------- -------------- -------------- --------------
    1 H                    1.0000     0.00000000     0.00000000    -0.34443535
    2 H                    1.0000     0.00000000     0.00000000     0.34443535

      Atomic Mass 
      ----------- 

      H                  1.007825


 Effective nuclear repulsion energy (a.u.)       0.7681808147

            Nuclear Dipole moment (a.u.) 
            ----------------------------
        X                 Y               Z
 ---------------- ---------------- ----------------
     0.0000000000     0.0000000000     0.0000000000

      Symmetry information
      --------------------

 Group name             D4h       
 Group number             28
 Group order              16
 No. of unique centers     1

      Symmetry unique atoms

     1

                                 NWChem SCF Module
                                 -----------------



  ao basis        = "ao basis"
  functions       =     2
  atoms           =     2
  closed shells   =     1
  open shells     =     0
  charge          =   0.00
  wavefunction    = RHF 
  input vectors   = ./h2-sto-3g.movecs
  output vectors  = ./h2-sto-3g.movecs
  use symmetry    = T
  symmetry adapt  = T


 Summary of "ao basis" -> "ao basis" (cartesian)
 ------------------------------------------------------------------------------
       Tag                 Description            Shells   Functions and Types
 ---------------- ------------------------------  ------  ---------------------
 H                           sto-3g                  1        1   1s


      Symmetry analysis of basis
      --------------------------

        a1g         1
        a1u         0
        a2g         0
        a2u         1
        b1g         0
        b1u         0
        b2g         0
        b2u         0
        eg          0
        eu          0


 Forming initial guess at       0.3s


 Loading old vectors from job with title :




      Symmetry analysis of molecular orbitals - initial
      -------------------------------------------------

  Numbering of irreducible representations: 

     1 a1g         2 a1u         3 a2g         4 a2u         5 b1g     
     6 b1u         7 b2g         8 b2u         9 eg         10 eu      

  Orbital symmetries:

     1 a1g         2 a2u     


 Starting SCF solution at       0.3s



 ----------------------------------------------
         Quadratically convergent ROHF

 Convergence threshold     :          1.000E-04
 Maximum no. of iterations :           30
 Final Fock-matrix accuracy:          1.000E-07
 ----------------------------------------------


 #quartets = 4.000D+00 #integrals = 4.000D+00 #direct =  0.0% #cached =100.0%


 Integral file          = ./h2-sto-3g.aoints.0
 Record size in doubles =    65536    No. of integs per rec  =    43688
 Max. records in memory =        2    Max. records in file   =  1055217
 No. of bits per label  =        8    No. of bits per value  =       64


              iter       energy          gnorm     gmax       time
             ----- ------------------- --------- --------- --------
                 1       -1.1169204508  0.00D+00  0.00D+00      0.1


       Final RHF  results 
       ------------------ 

         Total SCF energy =     -1.116920450760
      One-electron energy =     -2.569612852541
      Two-electron energy =      0.684511587078
 Nuclear repulsion energy =      0.768180814703

        Time for solution =      0.0s



       Symmetry analysis of molecular orbitals - final
       -----------------------------------------------

  Numbering of irreducible representations: 

     1 a1g         2 a1u         3 a2g         4 a2u         5 b1g     
     6 b1u         7 b2g         8 b2u         9 eg         10 eu      

  Orbital symmetries:

     1 a1g         2 a2u     

             Final eigenvalues
             -----------------

              1      
    1   -0.6003
    2    0.7268

                       ROHF Final Molecular Orbital Analysis
                       -------------------------------------

 Vector    1  Occ=2.000000D+00  E=-6.002948D-01  Symmetry=a1g
              MO Center=  0.0D+00,  0.0D+00,  0.0D+00, r^2= 6.5D-01
   Bfn.  Coefficient  Atom+Function         Bfn.  Coefficient  Atom+Function  
  ----- ------------  ---------------      ----- ------------  ---------------
     1      0.543384  1 H  s                  2      0.543384  2 H  s          

 Vector    2  Occ=0.000000D+00  E= 7.267593D-01  Symmetry=a2u
              MO Center=  0.0D+00,  0.0D+00,  0.0D+00, r^2= 7.2D-01
   Bfn.  Coefficient  Atom+Function         Bfn.  Coefficient  Atom+Function  
  ----- ------------  ---------------      ----- ------------  ---------------
     1      1.277004  1 H  s                  2     -1.277004  2 H  s          


 center of mass
 --------------
 x =   0.00000000 y =   0.00000000 z =   0.00000000

 moments of inertia (a.u.)
 ------------------
           0.853941693916           0.000000000000           0.000000000000
           0.000000000000           0.853941693916           0.000000000000
           0.000000000000           0.000000000000           0.000000000000

  Mulliken analysis of the total density
  --------------------------------------

    Atom       Charge   Shell Charges
 -----------   ------   -------------------------------------------------------
    1 H    1     1.00   1.00
    2 H    1     1.00   1.00

       Multipole analysis of the density wrt the origin
       ------------------------------------------------

     L   x y z        total         open         nuclear
     -   - - -        -----         ----         -------
     0   0 0 0     -0.000000      0.000000      2.000000

     1   1 0 0      0.000000      0.000000      0.000000
     1   0 1 0      0.000000      0.000000      0.000000
     1   0 0 1      0.000000      0.000000      0.000000

     2   2 0 0     -1.367341      0.000000      0.000000
     2   1 1 0      0.000000      0.000000      0.000000
     2   1 0 1      0.000000      0.000000      0.000000
     2   0 2 0     -1.367341      0.000000      0.000000
     2   0 1 1      0.000000      0.000000      0.000000
     2   0 0 2     -1.088563      0.000000      0.847311


 Parallel integral file used       1 records with       0 large values

                              NWChem Gradients Module
                              -----------------------



  wavefunction    =   RHF     

  Using symmetry


                         RHF ENERGY GRADIENTS

    atom               coordinates                        gradient
                 x          y          z           x          y          z
   1 H       0.000000   0.000000  -0.650888    0.000000   0.000000   0.027164
   2 H       0.000000   0.000000   0.650888    0.000000   0.000000  -0.027164

                 ----------------------------------------
                 |  Time  |  1-e(secs)   |  2-e(secs)   |
                 ----------------------------------------
                 |  CPU   |       0.00   |       0.00   |
                 ----------------------------------------
                 |  WALL  |       0.00   |       0.00   |
                 ----------------------------------------
  no constraints, skipping    0.0000000000000000     

  Step       Energy      Delta E   Gmax     Grms     Xrms     Xmax   Walltime
  ---- ---------------- -------- -------- -------- -------- -------- --------
@    3      -1.11692045 -1.6D-02  0.02716  0.02716  0.04824  0.08355      0.4
                                                                    



                                Z-matrix (autoz)
                                -------- 

 Units are Angstrom for bonds and degrees for angles

      Type          Name      I     J     K     L     M      Value     Gradient
      ----------- --------  ----- ----- ----- ----- ----- ---------- ----------
    1 Stretch                  1     2                       0.68887   -0.02716

  no constraints, skipping    0.0000000000000000     
  no constraints, skipping    0.0000000000000000     
  no constraints, skipping    0.0000000000000000     
                                 NWChem SCF Module
                                 -----------------



  ao basis        = "ao basis"
  functions       =     2
  atoms           =     2
  closed shells   =     1
  open shells     =     0
  charge          =   0.00
  wavefunction    = RHF 
  input vectors   = ./h2-sto-3g.movecs
  output vectors  = ./h2-sto-3g.movecs
  use symmetry    = T
  symmetry adapt  = T


 Summary of "ao basis" -> "ao basis" (cartesian)
 ------------------------------------------------------------------------------
       Tag                 Description            Shells   Functions and Types
 ---------------- ------------------------------  ------  ---------------------
 H                           sto-3g                  1        1   1s


      Symmetry analysis of basis
      --------------------------

        a1g         1
        a1u         0
        a2g         0
        a2u         1
        b1g         0
        b1u         0
        b2g         0
        b2u         0
        eg          0
        eu          0


 Forming initial guess at       0.4s


 Loading old vectors from job with title :




      Symmetry analysis of molecular orbitals - initial
      -------------------------------------------------

  Numbering of irreducible representations: 

     1 a1g         2 a1u         3 a2g         4 a2u         5 b1g     
     6 b1u         7 b2g         8 b2u         9 eg         10 eu      

  Orbital symmetries:

     1 a1g         2 a2u     


 Starting SCF solution at       0.4s



 ----------------------------------------------
         Quadratically convergent ROHF

 Convergence threshold     :          1.000E-04
 Maximum no. of iterations :           30
 Final Fock-matrix accuracy:          1.000E-07
 ----------------------------------------------


 #quartets = 4.000D+00 #integrals = 4.000D+00 #direct =  0.0% #cached =100.0%


 Integral file          = ./h2-sto-3g.aoints.0
 Record size in doubles =    65536    No. of integs per rec  =    43688
 Max. records in memory =        2    Max. records in file   =  1055217
 No. of bits per label  =        8    No. of bits per value  =       64


              iter       energy          gnorm     gmax       time
             ----- ------------------- --------- --------- --------
                 1       -1.1174564348  0.00D+00  0.00D+00      0.2


       Final RHF  results 
       ------------------ 

         Total SCF energy =     -1.117456434829
      One-electron energy =     -2.549089494753
      Two-electron energy =      0.681373593426
 Nuclear repulsion energy =      0.750259466499

        Time for solution =      0.0s



       Symmetry analysis of molecular orbitals - final
       -----------------------------------------------

  Numbering of irreducible representations: 

     1 a1g         2 a1u         3 a2g         4 a2u         5 b1g     
     6 b1u         7 b2g         8 b2u         9 eg         10 eu      

  Orbital symmetries:

     1 a1g         2 a2u     

             Final eigenvalues
             -----------------

              1      
    1   -0.5932
    2    0.7082

                       ROHF Final Molecular Orbital Analysis
                       -------------------------------------

 Vector    1  Occ=2.000000D+00  E=-5.931712D-01  Symmetry=a1g
              MO Center=  0.0D+00,  0.0D+00,  0.0D+00, r^2= 6.6D-01
   Bfn.  Coefficient  Atom+Function         Bfn.  Coefficient  Atom+Function  
  ----- ------------  ---------------      ----- ------------  ---------------
     1      0.545124  1 H  s                  2      0.545124  2 H  s          

 Vector    2  Occ=0.000000D+00  E= 7.082375D-01  Symmetry=a2u
              MO Center=  0.0D+00,  0.0D+00,  0.0D+00, r^2= 7.3D-01
   Bfn.  Coefficient  Atom+Function         Bfn.  Coefficient  Atom+Function  
  ----- ------------  ---------------      ----- ------------  ---------------
     1      1.255101  1 H  s                  2     -1.255101  2 H  s          


 center of mass
 --------------
 x =   0.00000000 y =   0.00000000 z =   0.00000000

 moments of inertia (a.u.)
 ------------------
           0.895224921630           0.000000000000           0.000000000000
           0.000000000000           0.895224921630           0.000000000000
           0.000000000000           0.000000000000           0.000000000000

  Mulliken analysis of the total density
  --------------------------------------

    Atom       Charge   Shell Charges
 -----------   ------   -------------------------------------------------------
    1 H    1     1.00   1.00
    2 H    1     1.00   1.00

       Multipole analysis of the density wrt the origin
       ------------------------------------------------

     L   x y z        total         open         nuclear
     -   - - -        -----         ----         -------
     0   0 0 0     -0.000000      0.000000      2.000000

     1   1 0 0      0.000000      0.000000      0.000000
     1   0 1 0      0.000000      0.000000      0.000000
     1   0 0 1      0.000000      0.000000      0.000000

     2   2 0 0     -1.369383      0.000000      0.000000
     2   1 1 0      0.000000      0.000000      0.000000
     2   1 0 1      0.000000      0.000000      0.000000
     2   0 2 0     -1.369383      0.000000      0.000000
     2   0 1 1      0.000000      0.000000      0.000000
     2   0 0 2     -1.079816      0.000000      0.888274


 Parallel integral file used       1 records with       0 large values

 Line search: 
     step= 1.00 grad=-8.4D-04 hess= 3.1D-04 energy=     -1.117456 mode=downhill
 new step= 1.37                   predicted energy=     -1.117498
  no constraints, skipping    0.0000000000000000     
  no constraints, skipping    0.0000000000000000     
  no constraints, skipping    0.0000000000000000     

          --------
          Step   4
          --------


                         Geometry "geometry" -> "geometry"
                         ---------------------------------

 Output coordinates in angstroms (scale by  1.889725989 to convert to a.u.)

  No.       Tag          Charge          X              Y              Z
 ---- ---------------- ---------- -------------- -------------- --------------
    1 H                    1.0000     0.00000000     0.00000000    -0.35569170
    2 H                    1.0000     0.00000000     0.00000000     0.35569170

      Atomic Mass 
      ----------- 

      H                  1.007825


 Effective nuclear repulsion energy (a.u.)       0.7438706726

            Nuclear Dipole moment (a.u.) 
            ----------------------------
        X                 Y               Z
 ---------------- ---------------- ----------------
     0.0000000000     0.0000000000     0.0000000000

      Symmetry information
      --------------------

 Group name             D4h       
 Group number             28
 Group order              16
 No. of unique centers     1

      Symmetry unique atoms

     1

                                 NWChem SCF Module
                                 -----------------



  ao basis        = "ao basis"
  functions       =     2
  atoms           =     2
  closed shells   =     1
  open shells     =     0
  charge          =   0.00
  wavefunction    = RHF 
  input vectors   = ./h2-sto-3g.movecs
  output vectors  = ./h2-sto-3g.movecs
  use symmetry    = T
  symmetry adapt  = T


 Summary of "ao basis" -> "ao basis" (cartesian)
 ------------------------------------------------------------------------------
       Tag                 Description            Shells   Functions and Types
 ---------------- ------------------------------  ------  ---------------------
 H                           sto-3g                  1        1   1s


      Symmetry analysis of basis
      --------------------------

        a1g         1
        a1u         0
        a2g         0
        a2u         1
        b1g         0
        b1u         0
        b2g         0
        b2u         0
        eg          0
        eu          0


 Forming initial guess at       0.4s


 Loading old vectors from job with title :




      Symmetry analysis of molecular orbitals - initial
      -------------------------------------------------

  Numbering of irreducible representations: 

     1 a1g         2 a1u         3 a2g         4 a2u         5 b1g     
     6 b1u         7 b2g         8 b2u         9 eg         10 eu      

  Orbital symmetries:

     1 a1g         2 a2u     


 Starting SCF solution at       0.4s



 ----------------------------------------------
         Quadratically convergent ROHF

 Convergence threshold     :          1.000E-04
 Maximum no. of iterations :           30
 Final Fock-matrix accuracy:          1.000E-07
 ----------------------------------------------


 #quartets = 4.000D+00 #integrals = 4.000D+00 #direct =  0.0% #cached =100.0%


 Integral file          = ./h2-sto-3g.aoints.0
 Record size in doubles =    65536    No. of integs per rec  =    43688
 Max. records in memory =        2    Max. records in file   =  1055217
 No. of bits per label  =        8    No. of bits per value  =       64


              iter       energy          gnorm     gmax       time
             ----- ------------------- --------- --------- --------
                 1       -1.1175051508  0.00D+00  0.00D+00      0.2


       Final RHF  results 
       ------------------ 

         Total SCF energy =     -1.117505150830
      One-electron energy =     -2.541593526005
      Two-electron energy =      0.680217702608
 Nuclear repulsion energy =      0.743870672567

        Time for solution =      0.0s



       Symmetry analysis of molecular orbitals - final
       -----------------------------------------------

  Numbering of irreducible representations: 

     1 a1g         2 a1u         3 a2g         4 a2u         5 b1g     
     6 b1u         7 b2g         8 b2u         9 eg         10 eu      

  Orbital symmetries:

     1 a1g         2 a2u     

             Final eigenvalues
             -----------------

              1      
    1   -0.5906
    2    0.7016

                       ROHF Final Molecular Orbital Analysis
                       -------------------------------------

 Vector    1  Occ=2.000000D+00  E=-5.905791D-01  Symmetry=a1g
              MO Center=  0.0D+00,  0.0D+00,  0.0D+00, r^2= 6.6D-01
   Bfn.  Coefficient  Atom+Function         Bfn.  Coefficient  Atom+Function  
  ----- ------------  ---------------      ----- ------------  ---------------
     1      0.545768  1 H  s                  2      0.545768  2 H  s          

 Vector    2  Occ=0.000000D+00  E= 7.015711D-01  Symmetry=a2u
              MO Center=  0.0D+00,  0.0D+00,  0.0D+00, r^2= 7.3D-01
   Bfn.  Coefficient  Atom+Function         Bfn.  Coefficient  Atom+Function  
  ----- ------------  ---------------      ----- ------------  ---------------
     1      1.247319  1 H  s                  2     -1.247319  2 H  s          


 center of mass
 --------------
 x =   0.00000000 y =   0.00000000 z =   0.00000000

 moments of inertia (a.u.)
 ------------------
           0.910668381248           0.000000000000           0.000000000000
           0.000000000000           0.910668381248           0.000000000000
           0.000000000000           0.000000000000           0.000000000000

  Mulliken analysis of the total density
  --------------------------------------

    Atom       Charge   Shell Charges
 -----------   ------   -------------------------------------------------------
    1 H    1     1.00   1.00
    2 H    1     1.00   1.00

       Multipole analysis of the density wrt the origin
       ------------------------------------------------

     L   x y z        total         open         nuclear
     -   - - -        -----         ----         -------
     0   0 0 0     -0.000000      0.000000      2.000000

     1   1 0 0      0.000000      0.000000      0.000000
     1   0 1 0      0.000000      0.000000      0.000000
     1   0 0 1      0.000000      0.000000      0.000000

     2   2 0 0     -1.370128      0.000000      0.000000
     2   1 1 0      0.000000      0.000000      0.000000
     2   1 0 1      0.000000      0.000000      0.000000
     2   0 2 0     -1.370128      0.000000      0.000000
     2   0 1 1      0.000000      0.000000      0.000000
     2   0 0 2     -1.076580      0.000000      0.903598


 Parallel integral file used       1 records with       0 large values

                              NWChem Gradients Module
                              -----------------------



  wavefunction    =   RHF     

  Using symmetry


                         RHF ENERGY GRADIENTS

    atom               coordinates                        gradient
                 x          y          z           x          y          z
   1 H       0.000000   0.000000  -0.672160    0.000000   0.000000   0.000919
   2 H       0.000000   0.000000   0.672160    0.000000   0.000000  -0.000919

                 ----------------------------------------
                 |  Time  |  1-e(secs)   |  2-e(secs)   |
                 ----------------------------------------
                 |  CPU   |       0.00   |       0.00   |
                 ----------------------------------------
                 |  WALL  |       0.00   |       0.00   |
                 ----------------------------------------
  no constraints, skipping    0.0000000000000000     

  Step       Energy      Delta E   Gmax     Grms     Xrms     Xmax   Walltime
  ---- ---------------- -------- -------- -------- -------- -------- --------
@    4      -1.11750515 -5.8D-04  0.00092  0.00092  0.01228  0.02127      0.4
                                                                    



                                Z-matrix (autoz)
                                -------- 

 Units are Angstrom for bonds and degrees for angles

      Type          Name      I     J     K     L     M      Value     Gradient
      ----------- --------  ----- ----- ----- ----- ----- ---------- ----------
    1 Stretch                  1     2                       0.71138   -0.00092

  no constraints, skipping    0.0000000000000000     
  no constraints, skipping    0.0000000000000000     
  no constraints, skipping    0.0000000000000000     
                                 NWChem SCF Module
                                 -----------------



  ao basis        = "ao basis"
  functions       =     2
  atoms           =     2
  closed shells   =     1
  open shells     =     0
  charge          =   0.00
  wavefunction    = RHF 
  input vectors   = ./h2-sto-3g.movecs
  output vectors  = ./h2-sto-3g.movecs
  use symmetry    = T
  symmetry adapt  = T


 Summary of "ao basis" -> "ao basis" (cartesian)
 ------------------------------------------------------------------------------
       Tag                 Description            Shells   Functions and Types
 ---------------- ------------------------------  ------  ---------------------
 H                           sto-3g                  1        1   1s


      Symmetry analysis of basis
      --------------------------

        a1g         1
        a1u         0
        a2g         0
        a2u         1
        b1g         0
        b1u         0
        b2g         0
        b2u         0
        eg          0
        eu          0


 Forming initial guess at       0.4s


 Loading old vectors from job with title :




      Symmetry analysis of molecular orbitals - initial
      -------------------------------------------------

  Numbering of irreducible representations: 

     1 a1g         2 a1u         3 a2g         4 a2u         5 b1g     
     6 b1u         7 b2g         8 b2u         9 eg         10 eu      

  Orbital symmetries:

     1 a1g         2 a2u     


 Starting SCF solution at       0.5s



 ----------------------------------------------
         Quadratically convergent ROHF

 Convergence threshold     :          1.000E-04
 Maximum no. of iterations :           30
 Final Fock-matrix accuracy:          1.000E-07
 ----------------------------------------------


 #quartets = 4.000D+00 #integrals = 4.000D+00 #direct =  0.0% #cached =100.0%


 Integral file          = ./h2-sto-3g.aoints.0
 Record size in doubles =    65536    No. of integs per rec  =    43688
 Max. records in memory =        2    Max. records in file   =  1055217
 No. of bits per label  =        8    No. of bits per value  =       64


              iter       energy          gnorm     gmax       time
             ----- ------------------- --------- --------- --------
                 1       -1.1175058816  0.00D+00  0.00D+00      0.2


       Final RHF  results 
       ------------------ 

         Total SCF energy =     -1.117505881646
      One-electron energy =     -2.540620594783
      Two-electron energy =      0.680067292601
 Nuclear repulsion energy =      0.743047420536

        Time for solution =      0.0s



       Symmetry analysis of molecular orbitals - final
       -----------------------------------------------

  Numbering of irreducible representations: 

     1 a1g         2 a1u         3 a2g         4 a2u         5 b1g     
     6 b1u         7 b2g         8 b2u         9 eg         10 eu      

  Orbital symmetries:

     1 a1g         2 a2u     

             Final eigenvalues
             -----------------

              1      
    1   -0.5902
    2    0.7007

                       ROHF Final Molecular Orbital Analysis
                       -------------------------------------

 Vector    1  Occ=2.000000D+00  E=-5.902430D-01  Symmetry=a1g
              MO Center=  0.0D+00,  0.0D+00,  0.0D+00, r^2= 6.6D-01
   Bfn.  Coefficient  Atom+Function         Bfn.  Coefficient  Atom+Function  
  ----- ------------  ---------------      ----- ------------  ---------------
     1      0.545853  1 H  s                  2      0.545853  2 H  s          

 Vector    2  Occ=0.000000D+00  E= 7.007096D-01  Symmetry=a2u
              MO Center=  0.0D+00,  0.0D+00,  0.0D+00, r^2= 7.3D-01
   Bfn.  Coefficient  Atom+Function         Bfn.  Coefficient  Atom+Function  
  ----- ------------  ---------------      ----- ------------  ---------------
     1      1.246317  1 H  s                  2     -1.246317  2 H  s          


 center of mass
 --------------
 x =   0.00000000 y =   0.00000000 z =   0.00000000

 moments of inertia (a.u.)
 ------------------
           0.912687431151           0.000000000000           0.000000000000
           0.000000000000           0.912687431151           0.000000000000
           0.000000000000           0.000000000000           0.000000000000

  Mulliken analysis of the total density
  --------------------------------------

    Atom       Charge   Shell Charges
 -----------   ------   -------------------------------------------------------
    1 H    1     1.00   1.00
    2 H    1     1.00   1.00

       Multipole analysis of the density wrt the origin
       ------------------------------------------------

     L   x y z        total         open         nuclear
     -   - - -        -----         ----         -------
     0   0 0 0     -0.000000      0.000000      2.000000

     1   1 0 0      0.000000      0.000000      0.000000
     1   0 1 0      0.000000      0.000000      0.000000
     1   0 0 1      0.000000      0.000000      0.000000

     2   2 0 0     -1.370225      0.000000      0.000000
     2   1 1 0      0.000000      0.000000      0.000000
     2   1 0 1      0.000000      0.000000      0.000000
     2   0 2 0     -1.370225      0.000000      0.000000
     2   0 1 1      0.000000      0.000000      0.000000
     2   0 0 2     -1.076159      0.000000      0.905601


 Parallel integral file used       1 records with       0 large values

 Line search: 
     step= 1.00 grad=-1.4D-06 hess= 6.4D-07 energy=     -1.117506 mode=accept  
 new step= 1.00                   predicted energy=     -1.117506
  no constraints, skipping    0.0000000000000000     
  no constraints, skipping    0.0000000000000000     
  no constraints, skipping    0.0000000000000000     

          --------
          Step   5
          --------


                         Geometry "geometry" -> "geometry"
                         ---------------------------------

[...]



 Forming initial guess at       0.5s


 Loading old vectors from job with title :




 Starting SCF solution at       0.5s



 ----------------------------------------------
         Quadratically convergent ROHF

 Convergence threshold     :          1.000E-06
 Maximum no. of iterations :           30
 Final Fock-matrix accuracy:          1.000E-08
 ----------------------------------------------


 #quartets = 6.000D+00 #integrals = 6.000D+00 #direct =  0.0% #cached =100.0%


 Integral file          = ./h2-sto-3g.aoints.0
 Record size in doubles =    65536    No. of integs per rec  =    43688
 Max. records in memory =        3    Max. records in file   =  1055217
 No. of bits per label  =        8    No. of bits per value  =       64


              iter       energy          gnorm     gmax       time
             ----- ------------------- --------- --------- --------
                 1       -1.1175058816  0.00D+00  0.00D+00      0.2


       Final RHF  results 
       ------------------ 

         Total SCF energy =     -1.117505881646
      One-electron energy =     -2.540620594783
      Two-electron energy =      0.680067292601
 Nuclear repulsion energy =      0.743047420536

        Time for solution =      0.0s


             Final eigenvalues
             -----------------

              1      
    1   -0.5902
    2    0.7007

                       ROHF Final Molecular Orbital Analysis
                       -------------------------------------

 Vector    1  Occ=2.000000D+00  E=-5.902430D-01
              MO Center=  0.0D+00,  0.0D+00,  0.0D+00, r^2= 6.6D-01
   Bfn.  Coefficient  Atom+Function         Bfn.  Coefficient  Atom+Function  
  ----- ------------  ---------------      ----- ------------  ---------------
     1      0.545853  1 H  s                  2      0.545853  2 H  s          

 Vector    2  Occ=0.000000D+00  E= 7.007096D-01
              MO Center=  0.0D+00,  0.0D+00,  0.0D+00, r^2= 7.3D-01
   Bfn.  Coefficient  Atom+Function         Bfn.  Coefficient  Atom+Function  
  ----- ------------  ---------------      ----- ------------  ---------------
     1      1.246317  1 H  s                  2     -1.246317  2 H  s          


 center of mass
 --------------
 x =   0.00000000 y =   0.00000000 z =   0.00000000

 moments of inertia (a.u.)
 ------------------
           0.912687431151           0.000000000000           0.000000000000
           0.000000000000           0.912687431151           0.000000000000
           0.000000000000           0.000000000000           0.000000000000

  Mulliken analysis of the total density
  --------------------------------------

    Atom       Charge   Shell Charges
 -----------   ------   -------------------------------------------------------
    1 H    1     1.00   1.00
    2 H    1     1.00   1.00

       Multipole analysis of the density wrt the origin
       ------------------------------------------------

     L   x y z        total         open         nuclear
     -   - - -        -----         ----         -------
     0   0 0 0     -0.000000      0.000000      2.000000

     1   1 0 0      0.000000      0.000000      0.000000
     1   0 1 0      0.000000      0.000000      0.000000
     1   0 0 1      0.000000      0.000000      0.000000

     2   2 0 0     -1.370225      0.000000      0.000000
     2   1 1 0      0.000000      0.000000      0.000000
     2   1 0 1      0.000000      0.000000      0.000000
     2   0 2 0     -1.370225      0.000000      0.000000
     2   0 1 1      0.000000      0.000000      0.000000
     2   0 0 2     -1.076159      0.000000      0.905601


 Parallel integral file used       1 records with       0 large values

 stpr_wrt_fd_dipole: overwrite of existing file./h2-sto-3g.fd_ddipole

 HESSIAN: the one electron contributions are done in       0.0s


 HESSIAN: 2-el 1st deriv. term done in                     0.0s


 HESSIAN: 2-el 2nd deriv. term done in                     0.0s

  stpr_wrt_fd_from_sq: overwrite of existing file:./h2-sto-3g.hess
 stpr_wrt_fd_dipole: overwrite of existing file./h2-sto-3g.fd_ddipole

 HESSIAN: the two electron contributions are done in       0.1s

                                NWChem CPHF Module
                                ------------------


  scftype          =     RHF 
  nclosed          =        1
  nopen            =        0
  variables        =        1
  # of vectors     =        6
  tolerance        = 0.10D-03
  level shift      = 0.00D+00
  max iterations   =       50
  max subspace     =       60


 #quartets = 6.000D+00 #integrals = 6.000D+00 #direct =  0.0% #cached =100.0%


 Integral file          = ./h2-sto-3g.aoints.0
 Record size in doubles =    65536    No. of integs per rec  =    43688
 Max. records in memory =        3    Max. records in file   =  1055217
 No. of bits per label  =        8    No. of bits per value  =       64

 SCF residual:    0.0000000000000000     


Iterative solution of linear equations
  No. of variables        1
  No. of equations        6
  Maximum subspace       60
        Iterations       50
       Convergence  1.0D-04
        Start time      0.6


   iter   nsub   residual    time
   ----  ------  --------  ---------
     1      6    0.00D+00       0.6

 Parallel integral file used       1 records with       0 large values

 HESSIAN: the CPHF contributions are done
  stpr_wrt_fd_from_sq: overwrite of existing file:./h2-sto-3g.hess
 stpr_wrt_fd_dipole: overwrite of existing file./h2-sto-3g.fd_ddipole

 Derivative Dipole

  
  
 X vector of derivative dipole (au) [debye/angstrom]
 d_dipole_x/<atom=   1,x> =    -0.0000     [   -0.0000]
 d_dipole_x/<atom=   1,y> =     0.0000     [    0.0000]
 d_dipole_x/<atom=   1,z> =     0.0000     [    0.0000]
 d_dipole_x/<atom=   2,x> =    -0.0000     [   -0.0000]
 d_dipole_x/<atom=   2,y> =     0.0000     [    0.0000]
 d_dipole_x/<atom=   2,z> =     0.0000     [    0.0000]
  
 Y vector of derivative dipole (au) [debye/angstrom]
 d_dipole_y/<atom=   1,x> =     0.0000     [    0.0000]
 d_dipole_y/<atom=   1,y> =    -0.0000     [   -0.0000]
 d_dipole_y/<atom=   1,z> =     0.0000     [    0.0000]
 d_dipole_y/<atom=   2,x> =     0.0000     [    0.0000]
 d_dipole_y/<atom=   2,y> =    -0.0000     [   -0.0000]
 d_dipole_y/<atom=   2,z> =     0.0000     [    0.0000]
  
 Z vector of derivative dipole (au) [debye/angstrom]
 d_dipole_z/<atom=   1,x> =     0.0000     [    0.0000]
 d_dipole_z/<atom=   1,y> =     0.0000     [    0.0000]
 d_dipole_z/<atom=   1,z> =    -0.0000     [   -0.0000]
 d_dipole_z/<atom=   2,x> =     0.0000     [    0.0000]
 d_dipole_z/<atom=   2,y> =     0.0000     [    0.0000]
 d_dipole_z/<atom=   2,z> =    -0.0000     [   -0.0000]
  
  
 HESSIAN: the Hessian is done


  Vibrational analysis via the FX method 

  See chapter 2 in "Molecular Vibrations" by Wilson, Decius and Cross

  Vib: Default input used 

  Nuclear Hessian passed symmetry test 



 ---------------------------- Atom information ----------------------------
     atom    #        X              Y              Z            mass
 --------------------------------------------------------------------------
    H        1  0.0000000D+00  0.0000000D+00 -6.7290456D-01  1.0078250D+00
    H        2  0.0000000D+00  0.0000000D+00  6.7290456D-01  1.0078250D+00
 --------------------------------------------------------------------------




          ----------------------------------------------------
          MASS-WEIGHTED NUCLEAR HESSIAN (Hartree/Bohr/Bohr/Kamu)
          ----------------------------------------------------


               1            2            3            4            5            6
   ----- ----- ----- ----- -----
    1   -4.65728D-02
    2    0.00000D+00 -4.65728D-02
    3    0.00000D+00  0.00000D+00  5.68686D+02
    4    4.65728D-02  0.00000D+00  0.00000D+00 -4.65728D-02
    5    0.00000D+00  4.65728D-02  0.00000D+00  0.00000D+00 -4.65728D-02
    6    0.00000D+00  0.00000D+00 -5.68686D+02  0.00000D+00  0.00000D+00  5.68686D+02



          -------------------------------------------------
          NORMAL MODE EIGENVECTORS IN CARTESIAN COORDINATES
          -------------------------------------------------
                 (Frequencies expressed in cm-1)

                    1           2           3           4           5           6
 
 Frequency        -49.61      -49.61       -0.00       -0.00        0.00     5482.21
 
           1    -0.70436     0.00000     0.70436     0.00000     0.00000     0.00000
           2     0.00000    -0.70436     0.00000     0.70436     0.00000     0.00000
           3     0.00000     0.00000     0.00000     0.00000     0.70436    -0.70436
           4     0.70436     0.00000     0.70436     0.00000     0.00000     0.00000
           5     0.00000     0.70436     0.00000     0.70436     0.00000     0.00000
           6     0.00000     0.00000     0.00000     0.00000     0.70436     0.70436



 ----------------------------------------------------------------------------
 Normal Eigenvalue ||         Derivative Dipole Moments (debye/angs)
  Mode   [cm**-1]  ||      [d/dqX]             [d/dqY]           [d/dqZ]
 ------ ---------- || ------------------ ------------------ -----------------
    1      -49.612 ||       0.000               0.000             0.000
    2      -49.612 ||       0.000               0.000             0.000
    3       -0.000 ||      -0.000               0.000             0.000
    4       -0.000 ||       0.000              -0.000             0.000
    5        0.000 ||       0.000               0.000            -0.000
    6     5482.209 ||       0.000               0.000            -0.000
 ----------------------------------------------------------------------------



  
  
 ----------------------------------------------------------------------------
 Normal Eigenvalue ||                 Infra Red Intensities
  Mode   [cm**-1]  || [atomic units] [(debye/angs)**2] [(KM/mol)] [arbitrary]
 ------ ---------- || -------------- ----------------- ---------- -----------
    1      -49.612 ||    0.000000           0.000         0.000       0.001
    2      -49.612 ||    0.000000           0.000         0.000       0.001
    3       -0.000 ||    0.000000           0.000         0.000      19.617
    4       -0.000 ||    0.000000           0.000         0.000      19.617
    5        0.000 ||    0.000000           0.000         0.000      20.754
    6     5482.209 ||    0.000000           0.000         0.000       0.009
 ----------------------------------------------------------------------------





        Vibrational analysis via the FX method 
  --- with translations and rotations projected out ---
  --- via the Eckart algorithm                      ---
 Dependent rotation vector no.                    3
  found in ECKART; assuming linear geometry
 Projected Nuclear Hessian trans-rot subspace norm:0.0000D+00
                         (should be close to zero!) 

          --------------------------------------------------------
          MASS-WEIGHTED PROJECTED HESSIAN (Hartree/Bohr/Bohr/Kamu)
          --------------------------------------------------------


               1            2            3            4            5            6
   ----- ----- ----- ----- -----
    1    0.00000D+00
    2    0.00000D+00  0.00000D+00
    3    0.00000D+00  0.00000D+00  5.68686D+02
    4    0.00000D+00  0.00000D+00  0.00000D+00  0.00000D+00
    5    0.00000D+00  0.00000D+00  0.00000D+00  0.00000D+00  0.00000D+00
    6    0.00000D+00  0.00000D+00 -5.68686D+02  0.00000D+00  0.00000D+00  5.68686D+02

 center of mass
 --------------
 x =   0.00000000 y =   0.00000000 z =   0.00000000

 moments of inertia (a.u.)
 ------------------
           0.912687431151           0.000000000000           0.000000000000
           0.000000000000           0.912687431151           0.000000000000
           0.000000000000           0.000000000000           0.000000000000

 Rotational Constants
 --------------------
 A=   0.000000 cm-1  (  0.000000 K)
 B=  65.959247 cm-1  ( 94.898522 K)
 C=  65.959247 cm-1  ( 94.898522 K)


 Temperature                      =   298.15K
 frequency scaling parameter      =   1.0000


 Linear Molecule                   

 Zero-Point correction to Energy  =    7.833 kcal/mol  (  0.012483 au)
 Thermal correction to Energy     =    9.314 kcal/mol  (  0.014843 au)
 Thermal correction to Enthalpy   =    9.906 kcal/mol  (  0.015787 au)

 Total Entropy                    =   30.951 cal/mol-K
   - Translational                =   28.068 cal/mol-K (mol. weight =   2.0156)
   - Rotational                   =    2.884 cal/mol-K (symmetry #  =        2)
   - Vibrational                  =    0.000 cal/mol-K

 Cv (constant volume heat capacity) =    4.966 cal/mol-K
   - Translational                  =    2.979 cal/mol-K
   - Rotational                     =    1.986 cal/mol-K
   - Vibrational                    =    0.000 cal/mol-K



          -------------------------------------------------
          NORMAL MODE EIGENVECTORS IN CARTESIAN COORDINATES
          -------------------------------------------------
             (Projected Frequencies expressed in cm-1)

                    1           2           3           4           5           6
 
 P.Frequency        0.00        0.00        0.00        0.00        0.00     5482.21
 
           1     0.99611     0.00000     0.00000     0.00000     0.00000     0.00000
           2     0.00000     0.99611     0.00000     0.00000     0.00000     0.00000
           3     0.00000     0.00000     0.00000     0.00000     0.70436    -0.70436
           4     0.00000     0.00000     0.99611     0.00000     0.00000     0.00000
           5     0.00000     0.00000     0.00000     0.99611     0.00000     0.00000
           6     0.00000     0.00000     0.00000     0.00000     0.70436     0.70436



 ----------------------------------------------------------------------------
 Normal Eigenvalue ||    Projected Derivative Dipole Moments (debye/angs)
  Mode   [cm**-1]  ||      [d/dqX]             [d/dqY]           [d/dqZ]
 ------ ---------- || ------------------ ------------------ -----------------
    1        0.000 ||      -0.000               0.000             0.000
    2        0.000 ||       0.000              -0.000             0.000
    3        0.000 ||      -0.000               0.000             0.000
    4        0.000 ||       0.000              -0.000             0.000
    5        0.000 ||       0.000               0.000            -0.000
    6     5482.209 ||       0.000               0.000            -0.000
 ----------------------------------------------------------------------------



  
  
 ----------------------------------------------------------------------------
 Normal Eigenvalue ||           Projected Infra Red Intensities
  Mode   [cm**-1]  || [atomic units] [(debye/angs)**2] [(KM/mol)] [arbitrary]
 ------ ---------- || -------------- ----------------- ---------- -----------
    1        0.000 ||    0.000000           0.000         0.000       9.941
    2        0.000 ||    0.000000           0.000         0.000       9.941
    3        0.000 ||    0.000000           0.000         0.000       9.678
    4        0.000 ||    0.000000           0.000         0.000       9.678
    5        0.000 ||    0.000000           0.000         0.000      20.754
    6     5482.209 ||    0.000000           0.000         0.000       0.009
 ----------------------------------------------------------------------------



 vib:animation  F

 Task  times  cpu:        0.0s     wall:        0.1s


                                NWChem Input Module
                                -------------------


 Summary of allocated global arrays
-----------------------------------
  No active global arrays


MA_summarize_allocated_blocks: starting scan ...
MA_summarize_allocated_blocks: scan completed: 0 heap blocks, 0 stack blocks
MA usage statistics:

	allocation statistics:
					      heap	     stack
					      ----	     -----
	current number of blocks	         0	         0
	maximum number of blocks	        26	        36
	current total bytes		         0	         0
	maximum total bytes		   1577928	  63522744
	maximum total K-bytes		      1578	     63523
	maximum total M-bytes		         2	        64


                                     CITATION
                                     --------
                Please cite the following reference when publishing
                           results obtained with NWChem:

          E. Apra, E. J. Bylaska, W. A. de Jong, N. Govind, K. Kowalski,
       T. P. Straatsma, M. Valiev, H. J. J. van Dam, Y. Alexeev, J. Anchell,
       V. Anisimov, F. W. Aquino, R. Atta-Fynn, J. Autschbach, N. P. Bauman,
     J. C. Becca, D. E. Bernholdt, K. Bhaskaran-Nair, S. Bogatko, P. Borowski,
         J. Boschen, J. Brabec, A. Bruner, E. Cauet, Y. Chen, G. N. Chuev,
      C. J. Cramer, J. Daily, M. J. O. Deegan, T. H. Dunning Jr., M. Dupuis,
   K. G. Dyall, G. I. Fann, S. A. Fischer, A. Fonari, H. Fruchtl, L. Gagliardi,
      J. Garza, N. Gawande, S. Ghosh, K. Glaesemann, A. W. Gotz, J. Hammond,
       V. Helms, E. D. Hermes, K. Hirao, S. Hirata, M. Jacquelin, L. Jensen,
   B. G. Johnson, H. Jonsson, R. A. Kendall, M. Klemm, R. Kobayashi, V. Konkov,
      S. Krishnamoorthy, M. Krishnan, Z. Lin, R. D. Lins, R. J. Littlefield,
      A. J. Logsdail, K. Lopata, W. Ma, A. V. Marenich, J. Martin del Campo,
   D. Mejia-Rodriguez, J. E. Moore, J. M. Mullin, T. Nakajima, D. R. Nascimento,
    J. A. Nichols, P. J. Nichols, J. Nieplocha, A. Otero-de-la-Roza, B. Palmer,
    A. Panyala, T. Pirojsirikul, B. Peng, R. Peverati, J. Pittner, L. Pollack,
   R. M. Richard, P. Sadayappan, G. C. Schatz, W. A. Shelton, D. W. Silverstein,
   D. M. A. Smith, T. A. Soares, D. Song, M. Swart, H. L. Taylor, G. S. Thomas,
            V. Tipparaju, D. G. Truhlar, K. Tsemekhman, T. Van Voorhis,
      A. Vazquez-Mayagoitia, P. Verma, O. Villa, A. Vishnu, K. D. Vogiatzis,
        D. Wang, J. H. Weare, M. J. Williamson, T. L. Windus, K. Wolinski,
        A. T. Wong, Q. Wu, C. Yang, Q. Yu, M. Zacharias, Z. Zhang, Y. Zhao,
                                and R. J. Harrison
                        "NWChem: Past, present, and future
                         J. Chem. Phys. 152, 184102 (2020)
                               doi:10.1063/5.0004997

                                      AUTHORS
                                      -------
  E. Apra, E. J. Bylaska, N. Govind, K. Kowalski, M. Valiev, D. Mejia-Rodriguez,
       A. Kunitsa, N. P. Bauman, A. Panyala, W. A. de Jong, T. P. Straatsma,
        H. J. J. van Dam, D. Wang, T. L. Windus, J. Hammond, J. Autschbach,
    K. Bhaskaran-Nair, J. Brabec, K. Lopata, S. A. Fischer, S. Krishnamoorthy,
     M. Jacquelin, W. Ma, M. Klemm, O. Villa, Y. Chen, V. Anisimov, F. Aquino,
    S. Hirata, M. T. Hackler, Eric Hermes, L. Jensen, J. E. Moore, J. C. Becca,
      V. Konjkov, T. Risthaus, M. Malagoli, A. Marenich, A. Otero-de-la-Roza,
        J. Mullin, P. Nichols, R. Peverati, J. Pittner, Y. Zhao, P.-D. Fan,
        A. Fonari, M. J. Williamson, R. J. Harrison, J. R. Rehr, M. Dupuis,
     D. Silverstein, D. M. A. Smith, J. Nieplocha, V. Tipparaju, M. Krishnan,
     B. E. Van Kuiken, A. Vazquez-Mayagoitia, M. Swart, Q. Wu, T. Van Voorhis,
     A. A. Auer, M. Nooijen, L. D. Crosby, E. Brown, G. Cisneros, G. I. Fann,
   H. Fruchtl, J. Garza, K. Hirao, R. A. Kendall, J. A. Nichols, K. Tsemekhman,
    K. Wolinski, J. Anchell, D. E. Bernholdt, P. Borowski, T. Clark, D. Clerc,
   H. Dachsel, M. J. O. Deegan, K. Dyall, D. Elwood, E. Glendening, M. Gutowski,
   A. C. Hess, J. Jaffe, B. G. Johnson, J. Ju, R. Kobayashi, R. Kutteh, Z. Lin,
   R. Littlefield, X. Long, B. Meng, T. Nakajima, S. Niu, L. Pollack, M. Rosing,
   K. Glaesemann, G. Sandrone, M. Stave, H. Taylor, G. Thomas, J. H. van Lenthe,
                               A. T. Wong, Z. Zhang.

 Total times  cpu:        0.2s     wall:        0.6s
