 argument  1 = h2o-dft-pbe-aug.nw



============================== echo of input deck ==============================
echo
start h2o-dat

memory heap 100 mb stack 1024 mb global 2048 mb

geometry
  load ../xyz/h2o.xyz
end

basis "cc-pvdz" spherical
  * library aug-cc-pvdz
end
basis "cc-pvtz" spherical
  * library aug-cc-pvtz
end
basis "cc-pvqz" spherical
  * library aug-cc-pvqz
end
basis "cc-pv5z" spherical
  * library aug-cc-pv5z
end
basis "cc-pv6z" spherical
  * library aug-cc-pv6z
end

dft
  direct
  # select PBE functional following https://doi.org/10.1002/aic.15517
  xc xpbe96 cpbe96
end

set int:txs:limxmem              50000000

set "ao basis" "cc-pvdz"
task dft optimize

set "ao basis" "cc-pvtz"
task dft optimize

set "ao basis" "cc-pvqz"
task dft optimize

set "ao basis" "cc-pv5z"
task dft optimize

set "ao basis" "cc-pv6z"
task dft optimize
================================================================================


                                         
                                         


             Northwest Computational Chemistry Package (NWChem) 7.0.1
             --------------------------------------------------------


                    Environmental Molecular Sciences Laboratory
                       Pacific Northwest National Laboratory
                                Richland, WA 99352

                              Copyright (c) 1994-2020
                       Pacific Northwest National Laboratory
                            Battelle Memorial Institute

             NWChem is an open-source computational chemistry package
                        distributed under the terms of the
                      Educational Community License (ECL) 2.0
             A copy of the license is included with this distribution
                              in the LICENSE.TXT file

                                  ACKNOWLEDGMENT
                                  --------------

            This software and its documentation were developed at the
            EMSL at Pacific Northwest National Laboratory, a multiprogram
            national laboratory, operated for the U.S. Department of Energy
            by Battelle under Contract Number DE-AC05-76RL01830. Support
            for this work was provided by the Department of Energy Office
            of Biological and Environmental Research, Office of Basic
            Energy Sciences, and the Office of Advanced Scientific Computing.


           Job information
           ---------------

    hostname        = node01
    program         = /home/hvandam/nwchem-1-srp-hpc/QA/tests/ZSM-5/nwc/../../../../bin/LINUX64/nwchem
    date            = Fri Jun  2 23:17:48 2023

    compiled        = Fri_Jun_02_17:17:24_2023
    source          = /home/hvandam/nwchem-1-srp-hpc
    nwchem branch   = 7.0.0
    nwchem revision = nwchem_on_git-4134-gde132dc
    ga revision     = 5.8.1
    use scalapack   = F
    input           = h2o-dft-pbe-aug.nw
    prefix          = h2o-dat.
    data base       = ./h2o-dat.db
    status          = startup
    nproc           =       16
    time left       =  86398s



           Memory information
           ------------------

    heap     =   13107196 doubles =    100.0 Mbytes
    stack    =  134217729 doubles =   1024.0 Mbytes
    global   =  268435456 doubles =   2048.0 Mbytes (distinct from heap & stack)
    total    =  415760381 doubles =   3172.0 Mbytes
    verify   = yes
    hardfail = no 


           Directory information
           ---------------------

  0 permanent = .
  0 scratch   = .




                                NWChem Input Module
                                -------------------



 Scaling coordinates for geometry "geometry" by  1.889725989
 (inverse scale =  0.529177249)

 C2V symmetry detected

          ------
          auto-z
          ------
  no constraints, skipping    0.0000000000000000     
  no constraints, skipping    0.0000000000000000     


                             Geometry "geometry" -> ""
                             -------------------------

 Output coordinates in angstroms (scale by  1.889725989 to convert to a.u.)

  No.       Tag          Charge          X              Y              Z
 ---- ---------------- ---------- -------------- -------------- --------------
    1 O                    8.0000     0.00000000     0.00000000    -0.11934379
    2 H                    1.0000     0.76346565     0.00000000     0.47737514
    3 H                    1.0000    -0.76346565     0.00000000     0.47737514

      Atomic Mass 
      ----------- 

      O                 15.994910
      H                  1.007825


 Effective nuclear repulsion energy (a.u.)       9.0843033521

            Nuclear Dipole moment (a.u.) 
            ----------------------------
        X                 Y               Z
 ---------------- ---------------- ----------------
     0.0000000000     0.0000000000     0.0000000000

      Symmetry information
      --------------------

 Group name             C2v       
 Group number             16
 Group order               4
 No. of unique centers     2

      Symmetry unique atoms

     1    2



                                Z-matrix (autoz)
                                -------- 

 Units are Angstrom for bonds and degrees for angles

      Type          Name      I     J     K     L     M      Value
      ----------- --------  ----- ----- ----- ----- ----- ----------
    1 Stretch                  1     2                       0.96900
    2 Stretch                  1     3                       0.96900
    3 Bend                     2     1     3               103.97818


            XYZ format geometry
            -------------------
     3
 geometry
 O                     0.00000000     0.00000000    -0.11934379
 H                     0.76346565     0.00000000     0.47737514
 H                    -0.76346565     0.00000000     0.47737514

 ==============================================================================
                                internuclear distances
 ------------------------------------------------------------------------------
       center one      |      center two      | atomic units |  angstroms
 ------------------------------------------------------------------------------
    2 H                |   1 O                |     1.83114  |     0.96900
    3 H                |   1 O                |     1.83114  |     0.96900
 ------------------------------------------------------------------------------
                         number of included internuclear distances:          2
 ==============================================================================



 ==============================================================================
                                 internuclear angles
 ------------------------------------------------------------------------------
        center 1       |       center 2       |       center 3       |  degrees
 ------------------------------------------------------------------------------
    2 H                |   1 O                |   3 H                |   103.98
 ------------------------------------------------------------------------------
                            number of included internuclear angles:          1
 ==============================================================================





 Summary of "cc-pvdz" -> "" (spherical)
 ------------------------------------------------------------------------------
       Tag                 Description            Shells   Functions and Types
 ---------------- ------------------------------  ------  ---------------------
 *                        aug-cc-pvdz                 on all atoms 




 Summary of "cc-pvtz" -> "" (spherical)
 ------------------------------------------------------------------------------
       Tag                 Description            Shells   Functions and Types
 ---------------- ------------------------------  ------  ---------------------
 *                        aug-cc-pvtz                 on all atoms 




 Summary of "cc-pvqz" -> "" (spherical)
 ------------------------------------------------------------------------------
       Tag                 Description            Shells   Functions and Types
 ---------------- ------------------------------  ------  ---------------------
 *                        aug-cc-pvqz                 on all atoms 




 Summary of "cc-pv5z" -> "" (spherical)
 ------------------------------------------------------------------------------
       Tag                 Description            Shells   Functions and Types
 ---------------- ------------------------------  ------  ---------------------
 *                        aug-cc-pv5z                 on all atoms 




 Summary of "cc-pv6z" -> "" (spherical)
 ------------------------------------------------------------------------------
       Tag                 Description            Shells   Functions and Types
 ---------------- ------------------------------  ------  ---------------------
 *                        aug-cc-pv6z                 on all atoms 


  pbe96 is a nonlocal functional; adding pw91lda local functional. 


                           NWChem Geometry Optimization
                           ----------------------------


  no constraints, skipping    0.0000000000000000     
 maximum gradient threshold         (gmax) =   0.000450
 rms gradient threshold             (grms) =   0.000300
 maximum cartesian step threshold   (xmax) =   0.001800
 rms cartesian step threshold       (xrms) =   0.001200
 fixed trust radius                (trust) =   0.300000
 maximum step size to saddle      (sadstp) =   0.100000
 energy precision                  (eprec) =   5.0D-06
 maximum number of steps          (nptopt) =   40
 initial hessian option           (inhess) =    0
 line search option               (linopt) =    1
 hessian update option            (modupd) =    1
 saddle point option              (modsad) =    0
 initial eigen-mode to follow     (moddir) =    0
 initial variable to follow       (vardir) =    0
 follow first negative mode     (firstneg) =    T
 apply conjugacy                    (opcg) =    F
 source of zmatrix                         =   autoz   


          -------------------
          Energy Minimization
          -------------------


 Names of Z-matrix variables 
    1              2              3         

 Variables with the same non-blank name are constrained to be equal


 Using old Hessian from previous optimization

          --------
          Step   0
          --------


                         Geometry "geometry" -> "geometry"
                         ---------------------------------

 Output coordinates in angstroms (scale by  1.889725989 to convert to a.u.)

  No.       Tag          Charge          X              Y              Z
 ---- ---------------- ---------- -------------- -------------- --------------
    1 O                    8.0000     0.00000000     0.00000000    -0.11934379
    2 H                    1.0000     0.76346565     0.00000000     0.47737514
    3 H                    1.0000    -0.76346565     0.00000000     0.47737514

      Atomic Mass 
      ----------- 

      O                 15.994910
      H                  1.007825


 Effective nuclear repulsion energy (a.u.)       9.0843033521

            Nuclear Dipole moment (a.u.) 
            ----------------------------
        X                 Y               Z
 ---------------- ---------------- ----------------
     0.0000000000     0.0000000000     0.0000000000

      Symmetry information
      --------------------

 Group name             C2v       
 Group number             16
 Group order               4
 No. of unique centers     2

      Symmetry unique atoms

     1    2


                                 NWChem DFT Module
                                 -----------------


                      Basis "ao basis" -> "cc-pvdz" (spherical)
                      -----
  O (Oxygen)
  ----------
            Exponent  Coefficients 
       -------------- ---------------------------------------------------------
  1 S  1.17200000E+04  0.000710
  1 S  1.75900000E+03  0.005470
  1 S  4.00800000E+02  0.027837
  1 S  1.13700000E+02  0.104800
  1 S  3.70300000E+01  0.283062
  1 S  1.32700000E+01  0.448719
  1 S  5.02500000E+00  0.270952
  1 S  1.01300000E+00  0.015458

  2 S  1.17200000E+04 -0.000160
  2 S  1.75900000E+03 -0.001263
  2 S  4.00800000E+02 -0.006267
  2 S  1.13700000E+02 -0.025716
  2 S  3.70300000E+01 -0.070924
  2 S  1.32700000E+01 -0.165411
  2 S  5.02500000E+00 -0.116955
  2 S  1.01300000E+00  0.557368

  3 S  3.02300000E-01  1.000000

  4 S  7.89600000E-02  1.000000

  5 P  1.77000000E+01  0.043018
  5 P  3.85400000E+00  0.228913
  5 P  1.04600000E+00  0.508728

  6 P  2.75300000E-01  1.000000

  7 P  6.85600000E-02  1.000000

  8 D  1.18500000E+00  1.000000

  9 D  3.32000000E-01  1.000000

  H (Hydrogen)
  ------------
            Exponent  Coefficients 
       -------------- ---------------------------------------------------------
  1 S  1.30100000E+01  0.019685
  1 S  1.96200000E+00  0.137977
  1 S  4.44600000E-01  0.478148

  2 S  1.22000000E-01  1.000000

  3 S  2.97400000E-02  1.000000

  4 P  7.27000000E-01  1.000000

  5 P  1.41000000E-01  1.000000



 Summary of "ao basis" -> "cc-pvdz" (spherical)
 ------------------------------------------------------------------------------
       Tag                 Description            Shells   Functions and Types
 ---------------- ------------------------------  ------  ---------------------
 O                        aug-cc-pvdz                9       23   4s3p2d
 H                        aug-cc-pvdz                5        9   3s2p




 Summary of "ao basis" -> "cc-pvdz" (spherical)
 ------------------------------------------------------------------------------
       Tag                 Description            Shells   Functions and Types
 ---------------- ------------------------------  ------  ---------------------
 O                        aug-cc-pvdz                9       23   4s3p2d
 H                        aug-cc-pvdz                5        9   3s2p


      Symmetry analysis of basis
      --------------------------

        a1         18
        a2          4
        b1         12
        b2          7

  texas integral default override: limxmem =             50000000
  Caching 1-el integrals 

            General Information
            -------------------
          SCF calculation type: DFT
          Wavefunction type:  closed shell.
          No. of atoms     :     3
          No. of electrons :    10
           Alpha electrons :     5
            Beta electrons :     5
          Charge           :     0
          Spin multiplicity:     1
          Use of symmetry is: on ; symmetry adaption is: on 
          Maximum number of iterations: 500
          This is a Direct SCF calculation.
          AO basis - number of functions:    41
                     number of shells:    19
          Convergence on energy requested:  1.00D-06
          Convergence on density requested:  1.00D-05
          Convergence on gradient requested:  5.00D-04

              XC Information
              --------------
          PerdewBurkeErnzerhof Exchange Functional  1.000          
            Perdew 1991 LDA Correlation Functional  1.000 local    
           PerdewBurkeErnz. Correlation Functional  1.000 non-local

             Grid Information
             ----------------
          Grid used for XC integration:  medium    
          Radial quadrature: Mura-Knowles        
          Angular quadrature: Lebedev. 
          Tag              B.-S. Rad. Rad. Pts. Rad. Cut. Ang. Pts.
          ---              ---------- --------- --------- ---------
          O                   0.60       49           9.0       434
          H                   0.35       45          11.0       434
          Grid pruning is: on 
          Number of quadrature shells:    94
          Spatial weights used:  Erf1

          Convergence Information
          -----------------------
          Convergence aids based upon iterative change in 
          total energy or number of iterations. 
          Levelshifting, if invoked, occurs when the 
          HOMO/LUMO gap drops below (HL_TOL):  1.00D-02
          DIIS, if invoked, will attempt to extrapolate 
          using up to (NFOCK): 10 stored Fock matrices.

                    Damping( 0%)  Levelshifting(0.5)       DIIS
                  --------------- ------------------- ---------------
          dE  on:    start            ASAP                start   
          dE off:    2 iters        500 iters           500 iters 


      Screening Tolerance Information
      -------------------------------
          Density screening/tol_rho:  1.00D-10
          AO Gaussian exp screening on grid/accAOfunc:  14
          CD Gaussian exp screening on grid/accCDfunc:  20
          XC Gaussian exp screening on grid/accXCfunc:  20
          Schwarz screening/accCoul:  1.00D-08


      Superposition of Atomic Density Guess
      -------------------------------------

 Sum of atomic energies:         -75.76548395

      Non-variational initial energy
      ------------------------------

 Total energy =     -75.907995
 1-e energy   =    -121.475279
 2-e energy   =      36.482981
 HOMO         =      -0.479400
 LUMO         =       0.011056


      Symmetry analysis of molecular orbitals - initial
      -------------------------------------------------

  Numbering of irreducible representations: 

     1 a1          2 a2          3 b1          4 b2      

  Orbital symmetries:

     1 a1          2 a1          3 b1          4 a1          5 b2      
     6 a1          7 b1          8 a1          9 b2         10 a1      
    11 b1         12 b1         13 a1         14 a2         15 a1      

   Time after variat. SCF:      0.4
   Time prior to 1st pass:      0.4

 Grid_pts file          = ./h2o-dat.gridpts.00
 Record size in doubles =  12289        No. of grid_pts per rec  =   3070
 Max. records in memory =      2        Max. recs in file   =   4694736


           Memory utilization after 1st SCF pass: 
           Heap Space remaining (MW):       13.08            13080564
          Stack Space remaining (MW):      134.22           134217372

   convergence    iter        energy       DeltaE   RMS-Dens  Diis-err    time
 ---------------- ----- ----------------- --------- --------- ---------  ------
 d= 0,ls=0.0,diis     1    -76.3162132361 -8.54D+01  2.15D-02  4.05D-01     0.6
 d= 0,ls=0.0,diis     2    -76.2309294464  8.53D-02  1.19D-02  1.31D+00     0.6
 d= 0,ls=0.0,diis     3    -76.3573876903 -1.26D-01  1.44D-03  2.08D-02     0.7
 d= 0,ls=0.0,diis     4    -76.3593028840 -1.92D-03  2.01D-04  4.41D-04     0.8
 d= 0,ls=0.0,diis     5    -76.3593475684 -4.47D-05  1.18D-05  3.24D-07     0.8
 d= 0,ls=0.0,diis     6    -76.3593476014 -3.30D-08  2.31D-06  3.05D-08     0.9


         Total DFT energy =      -76.359347601395
      One electron energy =     -122.701162224789
           Coulomb energy =       46.478598436843
    Exchange-Corr. energy =       -9.221087165576
 Nuclear repulsion energy =        9.084303352127

 Numeric. integr. density =        9.999999210532

     Total iterative time =      0.4s



                  Occupations of the irreducible representations
                  ----------------------------------------------

                     irrep           alpha         beta
                     --------     --------     --------
                     a1                3.0          3.0
                     a2                0.0          0.0
                     b1                1.0          1.0
                     b2                1.0          1.0


                       DFT Final Molecular Orbital Analysis
                       ------------------------------------

 Vector    1  Occ=2.000000D+00  E=-1.878071D+01  Symmetry=a1
              MO Center=  1.1D-17,  4.4D-22, -1.2D-01, r^2= 1.5D-02
   Bfn.  Coefficient  Atom+Function         Bfn.  Coefficient  Atom+Function  
  ----- ------------  ---------------      ----- ------------  ---------------
     1      1.005022  1 O  s          

 Vector    2  Occ=2.000000D+00  E=-9.310767D-01  Symmetry=a1
              MO Center= -4.6D-16, -4.5D-17,  8.6D-02, r^2= 5.0D-01
   Bfn.  Coefficient  Atom+Function         Bfn.  Coefficient  Atom+Function  
  ----- ------------  ---------------      ----- ------------  ---------------
     2      0.447359  1 O  s                  3      0.358841  1 O  s          
    24      0.214850  2 H  s                 33      0.214850  3 H  s          
     7      0.118443  1 O  pz                 4      0.068483  1 O  s          
    27     -0.036472  2 H  px                36      0.036472  3 H  px         
    25     -0.029989  2 H  s                 34     -0.029989  3 H  s          

 Vector    3  Occ=2.000000D+00  E=-4.815397D-01  Symmetry=b1
              MO Center=  4.8D-16, -3.0D-17,  9.7D-02, r^2= 7.8D-01
   Bfn.  Coefficient  Atom+Function         Bfn.  Coefficient  Atom+Function  
  ----- ------------  ---------------      ----- ------------  ---------------
     5      0.516679  1 O  px                24      0.363578  2 H  s          
    33     -0.363578  3 H  s                  8      0.145419  1 O  px         
    25      0.131338  2 H  s                 34     -0.131338  3 H  s          
    22      0.044060  1 O  d  1              29     -0.031556  2 H  pz         
    38      0.031556  3 H  pz         

 Vector    4  Occ=2.000000D+00  E=-3.438501D-01  Symmetry=a1
              MO Center=  2.6D-18,  2.5D-31, -1.8D-01, r^2= 7.6D-01
   Bfn.  Coefficient  Atom+Function         Bfn.  Coefficient  Atom+Function  
  ----- ------------  ---------------      ----- ------------  ---------------
     7      0.549416  1 O  pz                 3     -0.337718  1 O  s          
    10      0.286589  1 O  pz                24      0.211125  2 H  s          
    33      0.211125  3 H  s                  2     -0.171799  1 O  s          
     4     -0.110825  1 O  s                 25      0.075676  2 H  s          
    34      0.075676  3 H  s                 13      0.051849  1 O  pz         

 Vector    5  Occ=2.000000D+00  E=-2.649628D-01  Symmetry=b2
              MO Center= -2.4D-16,  5.8D-17, -7.3D-02, r^2= 7.3D-01
   Bfn.  Coefficient  Atom+Function         Bfn.  Coefficient  Atom+Function  
  ----- ------------  ---------------      ----- ------------  ---------------
     6      0.632769  1 O  py                 9      0.413060  1 O  py         
    12      0.098086  1 O  py                31      0.029112  2 H  py         
    40      0.029112  3 H  py                28      0.028154  2 H  py         
    37      0.028154  3 H  py         

 Vector    6  Occ=0.000000D+00  E=-3.552140D-02  Symmetry=a1
              MO Center= -2.9D-16, -8.0D-17,  7.5D-01, r^2= 6.6D+00
   Bfn.  Coefficient  Atom+Function         Bfn.  Coefficient  Atom+Function  
  ----- ------------  ---------------      ----- ------------  ---------------
    26      0.483184  2 H  s                 35      0.483184  3 H  s          
     4     -0.299314  1 O  s                  3     -0.266913  1 O  s          
    25      0.234655  2 H  s                 34      0.234655  3 H  s          
     7     -0.172254  1 O  pz                10     -0.143574  1 O  pz         
     2     -0.142554  1 O  s                 24      0.071408  2 H  s          

 Vector    7  Occ=0.000000D+00  E= 1.837981D-02  Symmetry=b1
              MO Center= -3.8D-17, -5.2D-32,  7.2D-01, r^2= 1.1D+01
   Bfn.  Coefficient  Atom+Function         Bfn.  Coefficient  Atom+Function  
  ----- ------------  ---------------      ----- ------------  ---------------
    26      2.213094  2 H  s                 35     -2.213094  3 H  s          
    11     -0.401330  1 O  px                25      0.378897  2 H  s          
    34     -0.378897  3 H  s                  5     -0.199019  1 O  px         
     8     -0.178951  1 O  px                30      0.038101  2 H  px         
    39      0.038101  3 H  px                24      0.032146  2 H  s          

 Vector    8  Occ=0.000000D+00  E= 9.059219D-02  Symmetry=a1
              MO Center= -4.3D-14,  4.9D-15, -3.3D-01, r^2= 9.6D+00
   Bfn.  Coefficient  Atom+Function         Bfn.  Coefficient  Atom+Function  
  ----- ------------  ---------------      ----- ------------  ---------------
     4      3.090821  1 O  s                 13      1.329554  1 O  pz         
    25     -0.991459  2 H  s                 34     -0.991459  3 H  s          
    26     -0.820507  2 H  s                 35     -0.820507  3 H  s          
    30      0.281451  2 H  px                39     -0.281451  3 H  px         
     7     -0.265159  1 O  pz                32      0.206679  2 H  pz         

 Vector    9  Occ=0.000000D+00  E= 1.082388D-01  Symmetry=b2
              MO Center= -4.7D-16, -1.2D-15, -2.6D-01, r^2= 5.9D+00
   Bfn.  Coefficient  Atom+Function         Bfn.  Coefficient  Atom+Function  
  ----- ------------  ---------------      ----- ------------  ---------------
    12      1.274230  1 O  py                 9     -0.276222  1 O  py         
     6     -0.254225  1 O  py                31     -0.145069  2 H  py         
    40     -0.145069  3 H  py                20      0.034706  1 O  d -1       

 Vector   10  Occ=0.000000D+00  E= 1.186919D-01  Symmetry=a1
              MO Center= -1.5D-14, -3.8D-15,  3.1D-01, r^2= 7.6D+00
   Bfn.  Coefficient  Atom+Function         Bfn.  Coefficient  Atom+Function  
  ----- ------------  ---------------      ----- ------------  ---------------
    13     -0.974842  1 O  pz                 4      0.961122  1 O  s          
    26     -0.558633  2 H  s                 35     -0.558633  3 H  s          
    25      0.409161  2 H  s                 34      0.409161  3 H  s          
     3     -0.278159  1 O  s                 30      0.268548  2 H  px         
    39     -0.268548  3 H  px                32      0.232177  2 H  pz         

 Vector   11  Occ=0.000000D+00  E= 1.317820D-01  Symmetry=b1
              MO Center=  7.5D-14,  8.4D-17,  7.4D-01, r^2= 8.1D+00
   Bfn.  Coefficient  Atom+Function         Bfn.  Coefficient  Atom+Function  
  ----- ------------  ---------------      ----- ------------  ---------------
    26      2.262243  2 H  s                 35     -2.262243  3 H  s          
    11     -0.865996  1 O  px                32     -0.488048  2 H  pz         
    41      0.488048  3 H  pz                30     -0.436022  2 H  px         
    39     -0.436022  3 H  px                 5      0.358723  1 O  px         
    25      0.228140  2 H  s                 34     -0.228140  3 H  s          

 Vector   12  Occ=0.000000D+00  E= 1.664833D-01  Symmetry=b1
              MO Center=  3.1D-14,  3.3D-16, -5.0D-01, r^2= 8.0D+00
   Bfn.  Coefficient  Atom+Function         Bfn.  Coefficient  Atom+Function  
  ----- ------------  ---------------      ----- ------------  ---------------
    11      2.793734  1 O  px                25     -2.223392  2 H  s          
    34      2.223392  3 H  s                 26     -2.169021  2 H  s          
    35      2.169021  3 H  s                  8      0.271028  1 O  px         
    30      0.219974  2 H  px                39      0.219974  3 H  px         
    24     -0.171677  2 H  s                 33      0.171677  3 H  s          

 Vector   13  Occ=0.000000D+00  E= 2.077087D-01  Symmetry=a1
              MO Center= -8.3D-15,  7.6D-16,  1.5D-01, r^2= 5.0D+00
   Bfn.  Coefficient  Atom+Function         Bfn.  Coefficient  Atom+Function  
  ----- ------------  ---------------      ----- ------------  ---------------
     4      4.730305  1 O  s                 25     -2.242982  2 H  s          
    34     -2.242982  3 H  s                 13      0.602528  1 O  pz         
    32      0.508580  2 H  pz                41      0.508580  3 H  pz         
    26     -0.432433  2 H  s                 35     -0.432433  3 H  s          
    30     -0.257146  2 H  px                39      0.257146  3 H  px         

 Vector   14  Occ=0.000000D+00  E= 2.602893D-01  Symmetry=a2
              MO Center=  6.3D-15, -4.5D-16,  5.1D-01, r^2= 3.8D+00
   Bfn.  Coefficient  Atom+Function         Bfn.  Coefficient  Atom+Function  
  ----- ------------  ---------------      ----- ------------  ---------------
    31      1.085808  2 H  py                40     -1.085808  3 H  py         
    19     -0.068443  1 O  d -2              14      0.035018  1 O  d -2       

 Vector   15  Occ=0.000000D+00  E= 2.715127D-01  Symmetry=a1
              MO Center= -2.2D-14, -5.1D-16,  1.0D-02, r^2= 5.2D+00
   Bfn.  Coefficient  Atom+Function         Bfn.  Coefficient  Atom+Function  
  ----- ------------  ---------------      ----- ------------  ---------------
     4      4.659084  1 O  s                 25     -2.329570  2 H  s          
    34     -2.329570  3 H  s                 13      1.978343  1 O  pz         
    10      0.661752  1 O  pz                32     -0.605883  2 H  pz         
    41     -0.605883  3 H  pz                30      0.416890  2 H  px         
    39     -0.416890  3 H  px                26     -0.392282  2 H  s          

 Vector   16  Occ=0.000000D+00  E= 3.004599D-01  Symmetry=b2
              MO Center= -1.2D-15,  7.6D-17,  3.1D-01, r^2= 4.4D+00
   Bfn.  Coefficient  Atom+Function         Bfn.  Coefficient  Atom+Function  
  ----- ------------  ---------------      ----- ------------  ---------------
    12      1.274970  1 O  py                31     -1.158101  2 H  py         
    40     -1.158101  3 H  py                 9      0.550621  1 O  py         
     6      0.170339  1 O  py         

 Vector   17  Occ=0.000000D+00  E= 4.230177D-01  Symmetry=b1
              MO Center=  8.3D-16, -1.1D-18,  4.0D-01, r^2= 5.4D+00
   Bfn.  Coefficient  Atom+Function         Bfn.  Coefficient  Atom+Function  
  ----- ------------  ---------------      ----- ------------  ---------------
    11      2.316536  1 O  px                30     -1.859777  2 H  px         
    39     -1.859777  3 H  px                32      1.234808  2 H  pz         
    41     -1.234808  3 H  pz                26     -1.073919  2 H  s          
    35      1.073919  3 H  s                 25      0.457726  2 H  s          
    34     -0.457726  3 H  s                  8      0.265054  1 O  px         

 Vector   18  Occ=0.000000D+00  E= 4.748429D-01  Symmetry=a1
              MO Center= -9.9D-15,  6.1D-17,  6.7D-01, r^2= 5.0D+00
   Bfn.  Coefficient  Atom+Function         Bfn.  Coefficient  Atom+Function  
  ----- ------------  ---------------      ----- ------------  ---------------
     4      4.978986  1 O  s                 25     -2.641113  2 H  s          
    34     -2.641113  3 H  s                  3      2.354637  1 O  s          
    30      1.276176  2 H  px                39     -1.276176  3 H  px         
    32      1.137864  2 H  pz                41      1.137864  3 H  pz         
    26     -0.594635  2 H  s                 35     -0.594635  3 H  s          

 Vector   19  Occ=0.000000D+00  E= 4.956096D-01  Symmetry=b1
              MO Center= -2.5D-14, -1.2D-16,  5.4D-01, r^2= 4.9D+00
   Bfn.  Coefficient  Atom+Function         Bfn.  Coefficient  Atom+Function  
  ----- ------------  ---------------      ----- ------------  ---------------
    25      6.042186  2 H  s                 34     -6.042186  3 H  s          
    30     -2.917257  2 H  px                39     -2.917257  3 H  px         
    11     -1.504034  1 O  px                32     -1.371164  2 H  pz         
    41      1.371164  3 H  pz                26      1.323204  2 H  s          
    35     -1.323204  3 H  s                  8     -1.205750  1 O  px         

 Vector   20  Occ=0.000000D+00  E= 5.911599D-01  Symmetry=b1
              MO Center=  6.6D-14, -1.7D-16,  3.1D-02, r^2= 4.0D+00
   Bfn.  Coefficient  Atom+Function         Bfn.  Coefficient  Atom+Function  
  ----- ------------  ---------------      ----- ------------  ---------------
    25      6.168013  2 H  s                 34     -6.168013  3 H  s          
    11     -2.287001  1 O  px                30     -1.732567  2 H  px         
    39     -1.732567  3 H  px                 8     -0.996355  1 O  px         
    26      0.798571  2 H  s                 35     -0.798571  3 H  s          
    22      0.614488  1 O  d  1              32     -0.608168  2 H  pz         

 Vector   21  Occ=0.000000D+00  E= 7.026432D-01  Symmetry=a1
              MO Center= -3.8D-14, -4.2D-16,  2.7D-01, r^2= 3.2D+00
   Bfn.  Coefficient  Atom+Function         Bfn.  Coefficient  Atom+Function  
  ----- ------------  ---------------      ----- ------------  ---------------
     4      5.967777  1 O  s                 25     -3.976956  2 H  s          
    34     -3.976956  3 H  s                 13      1.480135  1 O  pz         
     3      1.296184  1 O  s                 23      0.655868  1 O  d  2       
    24      0.558715  2 H  s                 33      0.558715  3 H  s          
    32      0.459134  2 H  pz                41      0.459134  3 H  pz         

 Vector   22  Occ=0.000000D+00  E= 8.662967D-01  Symmetry=b2
              MO Center= -1.5D-14, -8.0D-16, -4.2D-01, r^2= 2.0D+00
   Bfn.  Coefficient  Atom+Function         Bfn.  Coefficient  Atom+Function  
  ----- ------------  ---------------      ----- ------------  ---------------
    20      1.078021  1 O  d -1              12      0.797872  1 O  py         
    31     -0.585977  2 H  py                40     -0.585977  3 H  py         
     6      0.260603  1 O  py                 9     -0.086044  1 O  py         

 Vector   23  Occ=0.000000D+00  E= 8.783864D-01  Symmetry=a1
              MO Center= -1.9D-15,  2.0D-16, -4.1D-01, r^2= 2.1D+00
   Bfn.  Coefficient  Atom+Function         Bfn.  Coefficient  Atom+Function  
  ----- ------------  ---------------      ----- ------------  ---------------
     4      1.106859  1 O  s                 21     -1.092617  1 O  d  0       
    25     -0.766666  2 H  s                 34     -0.766666  3 H  s          
    32      0.721754  2 H  pz                41      0.721754  3 H  pz         
     3      0.633880  1 O  s                 13     -0.525355  1 O  pz         
    10      0.188324  1 O  pz                 7     -0.169491  1 O  pz         

 Vector   24  Occ=0.000000D+00  E= 9.117016D-01  Symmetry=a2
              MO Center=  1.5D-14, -1.7D-15,  3.6D-02, r^2= 2.1D+00
   Bfn.  Coefficient  Atom+Function         Bfn.  Coefficient  Atom+Function  
  ----- ------------  ---------------      ----- ------------  ---------------
    19      1.206288  1 O  d -2              31     -0.786211  2 H  py         
    40      0.786211  3 H  py                28      0.052349  2 H  py         
    37     -0.052349  3 H  py         

 Vector   25  Occ=0.000000D+00  E= 1.012238D+00  Symmetry=a1
              MO Center= -3.7D-14,  2.9D-17,  1.5D-01, r^2= 2.1D+00
   Bfn.  Coefficient  Atom+Function         Bfn.  Coefficient  Atom+Function  
  ----- ------------  ---------------      ----- ------------  ---------------
     4      3.624739  1 O  s                 25     -2.579813  2 H  s          
    34     -2.579813  3 H  s                  3      1.494788  1 O  s          
    10      1.255320  1 O  pz                13      0.813995  1 O  pz         
    23     -0.766757  1 O  d  2              30      0.752543  2 H  px         
    39     -0.752543  3 H  px                 7     -0.565671  1 O  pz         

 Vector   26  Occ=0.000000D+00  E= 1.132066D+00  Symmetry=b2
              MO Center= -9.7D-15,  2.1D-17,  2.3D-01, r^2= 1.6D+00
   Bfn.  Coefficient  Atom+Function         Bfn.  Coefficient  Atom+Function  
  ----- ------------  ---------------      ----- ------------  ---------------
     9      1.620210  1 O  py                 6     -0.941623  1 O  py         
    31     -0.643307  2 H  py                40     -0.643307  3 H  py         
    20      0.455362  1 O  d -1              12      0.178478  1 O  py         

 Vector   27  Occ=0.000000D+00  E= 1.170165D+00  Symmetry=b1
              MO Center=  4.7D-14,  1.7D-15, -2.7D-01, r^2= 2.1D+00
   Bfn.  Coefficient  Atom+Function         Bfn.  Coefficient  Atom+Function  
  ----- ------------  ---------------      ----- ------------  ---------------
    25      4.772770  2 H  s                 34     -4.772770  3 H  s          
     8     -2.041400  1 O  px                30     -1.380180  2 H  px         
    39     -1.380180  3 H  px                32     -1.187570  2 H  pz         
    41      1.187570  3 H  pz                11     -1.146471  1 O  px         
    22     -0.780899  1 O  d  1               5      0.599646  1 O  px         

 Vector   28  Occ=0.000000D+00  E= 1.254410D+00  Symmetry=a1
              MO Center= -3.0D-14,  4.6D-16, -2.5D-01, r^2= 1.8D+00
   Bfn.  Coefficient  Atom+Function         Bfn.  Coefficient  Atom+Function  
  ----- ------------  ---------------      ----- ------------  ---------------
    10      1.568152  1 O  pz                 4      1.554291  1 O  s          
    24     -0.868157  2 H  s                 33     -0.868157  3 H  s          
    23      0.814771  1 O  d  2               7     -0.649729  1 O  pz         
     2      0.517096  1 O  s                  3     -0.448780  1 O  s          
    25     -0.347668  2 H  s                 34     -0.347668  3 H  s          

 Vector   29  Occ=0.000000D+00  E= 1.673656D+00  Symmetry=b1
              MO Center=  1.6D-14, -9.3D-16,  3.1D-01, r^2= 1.8D+00
   Bfn.  Coefficient  Atom+Function         Bfn.  Coefficient  Atom+Function  
  ----- ------------  ---------------      ----- ------------  ---------------
    11      1.080448  1 O  px                25     -0.837683  2 H  s          
    34      0.837683  3 H  s                  8      0.787147  1 O  px         
    32      0.688919  2 H  pz                41     -0.688919  3 H  pz         
    22     -0.658473  1 O  d  1              29     -0.658502  2 H  pz         
    38      0.658502  3 H  pz                26     -0.499702  2 H  s          

 Vector   30  Occ=0.000000D+00  E= 1.690589D+00  Symmetry=a2
              MO Center=  6.1D-14,  7.6D-16,  2.7D-01, r^2= 1.5D+00
   Bfn.  Coefficient  Atom+Function         Bfn.  Coefficient  Atom+Function  
  ----- ------------  ---------------      ----- ------------  ---------------
    28     -0.940413  2 H  py                37      0.940413  3 H  py         
    19      0.867029  1 O  d -2              31      0.101538  2 H  py         
    40     -0.101538  3 H  py                14     -0.070230  1 O  d -2       

 Vector   31  Occ=0.000000D+00  E= 1.786052D+00  Symmetry=b2
              MO Center= -5.6D-14,  1.1D-16,  4.1D-01, r^2= 1.4D+00
   Bfn.  Coefficient  Atom+Function         Bfn.  Coefficient  Atom+Function  
  ----- ------------  ---------------      ----- ------------  ---------------
    28      0.987125  2 H  py                37      0.987125  3 H  py         
     9     -0.781022  1 O  py                20     -0.700929  1 O  d -1       
    12      0.184499  1 O  py                31     -0.095064  2 H  py         
    40     -0.095064  3 H  py                15      0.061307  1 O  d -1       

 Vector   32  Occ=0.000000D+00  E= 2.047988D+00  Symmetry=a1
              MO Center= -1.1D-13, -2.8D-18,  2.2D-01, r^2= 1.6D+00
   Bfn.  Coefficient  Atom+Function         Bfn.  Coefficient  Atom+Function  
  ----- ------------  ---------------      ----- ------------  ---------------
     3      1.756755  1 O  s                  4      1.355545  1 O  s          
    21     -1.267509  1 O  d  0              25     -1.088937  2 H  s          
    34     -1.088937  3 H  s                 29      0.928438  2 H  pz         
    38      0.928438  3 H  pz                23      0.717056  1 O  d  2       
     2     -0.689264  1 O  s                 27     -0.650533  2 H  px         

 Vector   33  Occ=0.000000D+00  E= 2.053750D+00  Symmetry=b1
              MO Center=  9.3D-14,  3.0D-16,  3.7D-01, r^2= 1.4D+00
   Bfn.  Coefficient  Atom+Function         Bfn.  Coefficient  Atom+Function  
  ----- ------------  ---------------      ----- ------------  ---------------
    25      2.332528  2 H  s                 34     -2.332528  3 H  s          
     8     -1.714704  1 O  px                30     -1.162439  2 H  px         
    39     -1.162439  3 H  px                 5      0.894446  1 O  px         
    27      0.718456  2 H  px                36      0.718456  3 H  px         
    24      0.549448  2 H  s                 32     -0.546982  2 H  pz         

 Vector   34  Occ=0.000000D+00  E= 2.194734D+00  Symmetry=a1
              MO Center=  1.1D-14,  1.6D-17,  4.1D-01, r^2= 1.4D+00
   Bfn.  Coefficient  Atom+Function         Bfn.  Coefficient  Atom+Function  
  ----- ------------  ---------------      ----- ------------  ---------------
     3      1.811835  1 O  s                  2     -1.521901  1 O  s          
     4      1.211947  1 O  s                 25     -0.853650  2 H  s          
    34     -0.853650  3 H  s                  1     -0.669912  1 O  s          
    29     -0.617074  2 H  pz                38     -0.617074  3 H  pz         
    30      0.565228  2 H  px                39     -0.565228  3 H  px         

 Vector   35  Occ=0.000000D+00  E= 2.335943D+00  Symmetry=b1
              MO Center=  2.5D-14,  1.1D-16,  2.1D-01, r^2= 1.7D+00
   Bfn.  Coefficient  Atom+Function         Bfn.  Coefficient  Atom+Function  
  ----- ------------  ---------------      ----- ------------  ---------------
    25      4.598414  2 H  s                 34     -4.598414  3 H  s          
     8     -3.900276  1 O  px                24      2.191245  2 H  s          
    33     -2.191245  3 H  s                 22      2.020798  1 O  d  1       
    30     -1.378911  2 H  px                39     -1.378911  3 H  px         
    11     -1.239173  1 O  px                32     -0.662185  2 H  pz         

 Vector   36  Occ=0.000000D+00  E= 2.584205D+00  Symmetry=a1
              MO Center= -2.3D-14,  6.1D-17,  1.4D-01, r^2= 1.7D+00
   Bfn.  Coefficient  Atom+Function         Bfn.  Coefficient  Atom+Function  
  ----- ------------  ---------------      ----- ------------  ---------------
     3      5.746828  1 O  s                  4      4.550250  1 O  s          
    25     -3.289522  2 H  s                 34     -3.289522  3 H  s          
    10      2.415901  1 O  pz                24     -1.645247  2 H  s          
    33     -1.645247  3 H  s                  2     -1.469800  1 O  s          
    27      0.893680  2 H  px                36     -0.893680  3 H  px         

 Vector   37  Occ=0.000000D+00  E= 3.193083D+00  Symmetry=b2
              MO Center=  7.7D-16,  3.7D-17, -1.3D-01, r^2= 7.5D-01
   Bfn.  Coefficient  Atom+Function         Bfn.  Coefficient  Atom+Function  
  ----- ------------  ---------------      ----- ------------  ---------------
    15      1.193367  1 O  d -1              20     -0.693333  1 O  d -1       
    12     -0.323419  1 O  py                31      0.313216  2 H  py         
    40      0.313216  3 H  py                 9     -0.170800  1 O  py         
    28     -0.101959  2 H  py                37     -0.101959  3 H  py         
     6      0.044873  1 O  py         

 Vector   38  Occ=0.000000D+00  E= 3.204382D+00  Symmetry=a1
              MO Center= -8.8D-17,  2.3D-17, -1.3D-01, r^2= 7.7D-01
   Bfn.  Coefficient  Atom+Function         Bfn.  Coefficient  Atom+Function  
  ----- ------------  ---------------      ----- ------------  ---------------
    16      1.192227  1 O  d  0              21     -0.655724  1 O  d  0       
     3      0.621847  1 O  s                 32      0.327330  2 H  pz         
    41      0.327330  3 H  pz                 4      0.252086  1 O  s          
    13     -0.249644  1 O  pz                25     -0.212573  2 H  s          
    34     -0.212573  3 H  s                  2     -0.184747  1 O  s          

 Vector   39  Occ=0.000000D+00  E= 3.217166D+00  Symmetry=a2
              MO Center= -1.1D-15,  1.9D-16, -8.3D-02, r^2= 7.6D-01
   Bfn.  Coefficient  Atom+Function         Bfn.  Coefficient  Atom+Function  
  ----- ------------  ---------------      ----- ------------  ---------------
    14      1.205077  1 O  d -2              19     -0.722703  1 O  d -2       
    31      0.336652  2 H  py                40     -0.336652  3 H  py         
    28     -0.121256  2 H  py                37      0.121256  3 H  py         

 Vector   40  Occ=0.000000D+00  E= 3.512713D+00  Symmetry=a1
              MO Center=  7.0D-15,  1.1D-17, -5.8D-04, r^2= 8.8D-01
   Bfn.  Coefficient  Atom+Function         Bfn.  Coefficient  Atom+Function  
  ----- ------------  ---------------      ----- ------------  ---------------
     3      3.545338  1 O  s                  4      1.651849  1 O  s          
    10      1.463194  1 O  pz                25     -1.348107  2 H  s          
    34     -1.348107  3 H  s                 24     -1.238324  2 H  s          
    33     -1.238324  3 H  s                 18      1.206463  1 O  d  2       
    27      0.709778  2 H  px                36     -0.709778  3 H  px         

 Vector   41  Occ=0.000000D+00  E= 3.768980D+00  Symmetry=b1
              MO Center= -2.3D-14, -1.3D-17, -3.7D-02, r^2= 8.8D-01
   Bfn.  Coefficient  Atom+Function         Bfn.  Coefficient  Atom+Function  
  ----- ------------  ---------------      ----- ------------  ---------------
    25     -2.420503  2 H  s                 34      2.420503  3 H  s          
     8      2.403039  1 O  px                24     -1.464340  2 H  s          
    33      1.464340  3 H  s                 17     -1.324088  1 O  d  1       
    30      0.677527  2 H  px                39      0.677527  3 H  px         
    27      0.671729  2 H  px                36      0.671729  3 H  px         


 center of mass
 --------------
 x =   0.00000000 y =   0.00000000 z =  -0.09932787

 moments of inertia (a.u.)
 ------------------
           2.276182099401           0.000000000000           0.000000000000
           0.000000000000           6.471760092361           0.000000000000
           0.000000000000           0.000000000000           4.195577992960

     Multipole analysis of the density
     ---------------------------------

     L   x y z        total         alpha         beta         nuclear
     -   - - -        -----         -----         ----         -------
     0   0 0 0     -0.000000     -5.000000     -5.000000     10.000000

     1   1 0 0      0.000000      0.000000      0.000000      0.000000
     1   0 1 0     -0.000000     -0.000000     -0.000000      0.000000
     1   0 0 1      0.712254      0.356127      0.356127      0.000000

     2   2 0 0     -3.435515     -3.799259     -3.799259      4.163002
     2   1 1 0     -0.000000     -0.000000     -0.000000      0.000000
     2   1 0 1      0.000000      0.000000      0.000000      0.000000
     2   0 2 0     -5.878234     -2.939117     -2.939117      0.000000
     2   0 1 1     -0.000000     -0.000000     -0.000000      0.000000
     2   0 0 2     -4.881447     -3.457973     -3.457973      2.034498


            General Information
            -------------------
          SCF calculation type: DFT
          Wavefunction type:  closed shell.
          No. of atoms     :     3
          No. of electrons :    10
           Alpha electrons :     5
            Beta electrons :     5
          Charge           :     0
          Spin multiplicity:     1
          Use of symmetry is: on ; symmetry adaption is: on 
          Maximum number of iterations: 500
          This is a Direct SCF calculation.
          AO basis - number of functions:    41
                     number of shells:    19
          Convergence on energy requested:  1.00D-06
          Convergence on density requested:  1.00D-05
          Convergence on gradient requested:  5.00D-04

              XC Information
              --------------
          PerdewBurkeErnzerhof Exchange Functional  1.000          
            Perdew 1991 LDA Correlation Functional  1.000 local    
           PerdewBurkeErnz. Correlation Functional  1.000 non-local

             Grid Information
             ----------------
          Grid used for XC integration:  medium    
          Radial quadrature: Mura-Knowles        
          Angular quadrature: Lebedev. 
          Tag              B.-S. Rad. Rad. Pts. Rad. Cut. Ang. Pts.
          ---              ---------- --------- --------- ---------
          O                   0.60       49           9.0       434
          H                   0.35       45          11.0       434
          Grid pruning is: on 
          Number of quadrature shells:    94
          Spatial weights used:  Erf1

          Convergence Information
          -----------------------
          Convergence aids based upon iterative change in 
          total energy or number of iterations. 
          Levelshifting, if invoked, occurs when the 
          HOMO/LUMO gap drops below (HL_TOL):  1.00D-02
          DIIS, if invoked, will attempt to extrapolate 
          using up to (NFOCK): 10 stored Fock matrices.

                    Damping( 0%)  Levelshifting(0.5)       DIIS
                  --------------- ------------------- ---------------
          dE  on:    start            ASAP                start   
          dE off:    2 iters        500 iters           500 iters 


      Screening Tolerance Information
      -------------------------------
          Density screening/tol_rho:  1.00D-10
          AO Gaussian exp screening on grid/accAOfunc:  14
          CD Gaussian exp screening on grid/accCDfunc:  20
          XC Gaussian exp screening on grid/accXCfunc:  20
          Schwarz screening/accCoul:  1.00D-08

  texas integral default override: limxmem =             50000000
  texas integral default override: limxmem =             50000000


                            NWChem DFT Gradient Module
                            --------------------------



  charge          =   0.00
  wavefunction    = closed shell

  Using symmetry
  texas integral default override: limxmem =             50000000
  texas integral default override: limxmem =             50000000


                         DFT ENERGY GRADIENTS

    atom               coordinates                        gradient
                 x          y          z           x          y          z
   1 O       0.000000   0.000000  -0.225527    0.000000   0.000000   0.004795
   2 H       1.442741   0.000000   0.902108   -0.003082   0.000000  -0.002398
   3 H      -1.442741   0.000000   0.902108    0.003082   0.000000  -0.002398

                 ----------------------------------------
                 |  Time  |  1-e(secs)   |  2-e(secs)   |
                 ----------------------------------------
                 |  CPU   |       0.00   |       0.06   |
                 ----------------------------------------
                 |  WALL  |       0.00   |       0.06   |
                 ----------------------------------------
  no constraints, skipping    0.0000000000000000     

@ Step       Energy      Delta E   Gmax     Grms     Xrms     Xmax   Walltime
@ ---- ---------------- -------- -------- -------- -------- -------- --------
@    0     -76.35934760  0.0D+00  0.00390  0.00319  0.00000  0.00000      1.1
                                                                    



                                Z-matrix (autoz)
                                -------- 

 Units are Angstrom for bonds and degrees for angles

      Type          Name      I     J     K     L     M      Value     Gradient
      ----------- --------  ----- ----- ----- ----- ----- ---------- ----------
    1 Stretch                  1     2                       0.96900   -0.00390
    2 Stretch                  1     3                       0.96900   -0.00390
    3 Bend                     2     1     3               103.97818   -0.00001

  no constraints, skipping    0.0000000000000000     
  no constraints, skipping    0.0000000000000000     
  no constraints, skipping    0.0000000000000000     
  no constraints, skipping    0.0000000000000000     

                                 NWChem DFT Module
                                 -----------------




 Summary of "ao basis" -> "cc-pvdz" (spherical)
 ------------------------------------------------------------------------------
       Tag                 Description            Shells   Functions and Types
 ---------------- ------------------------------  ------  ---------------------
 O                        aug-cc-pvdz                9       23   4s3p2d
 H                        aug-cc-pvdz                5        9   3s2p


      Symmetry analysis of basis
      --------------------------

        a1         18
        a2          4
        b1         12
        b2          7

  texas integral default override: limxmem =             50000000
  Caching 1-el integrals 

            General Information
            -------------------
          SCF calculation type: DFT
          Wavefunction type:  closed shell.
          No. of atoms     :     3
          No. of electrons :    10
           Alpha electrons :     5
            Beta electrons :     5
          Charge           :     0
          Spin multiplicity:     1
          Use of symmetry is: on ; symmetry adaption is: on 
          Maximum number of iterations: 500
          This is a Direct SCF calculation.
          AO basis - number of functions:    41
                     number of shells:    19
          Convergence on energy requested:  1.00D-06
          Convergence on density requested:  1.00D-05
          Convergence on gradient requested:  5.00D-04

              XC Information
              --------------
          PerdewBurkeErnzerhof Exchange Functional  1.000          
            Perdew 1991 LDA Correlation Functional  1.000 local    
           PerdewBurkeErnz. Correlation Functional  1.000 non-local

             Grid Information
             ----------------
          Grid used for XC integration:  medium    
          Radial quadrature: Mura-Knowles        
          Angular quadrature: Lebedev. 
          Tag              B.-S. Rad. Rad. Pts. Rad. Cut. Ang. Pts.
          ---              ---------- --------- --------- ---------
          O                   0.60       49           9.0       434
          H                   0.35       45          11.0       434
          Grid pruning is: on 
          Number of quadrature shells:    94
          Spatial weights used:  Erf1

          Convergence Information
          -----------------------
          Convergence aids based upon iterative change in 
          total energy or number of iterations. 
          Levelshifting, if invoked, occurs when the 
          HOMO/LUMO gap drops below (HL_TOL):  1.00D-02
          DIIS, if invoked, will attempt to extrapolate 
          using up to (NFOCK): 10 stored Fock matrices.

                    Damping( 0%)  Levelshifting(0.5)       DIIS
                  --------------- ------------------- ---------------
          dE  on:    start            ASAP                start   
          dE off:    2 iters        500 iters           500 iters 


      Screening Tolerance Information
      -------------------------------
          Density screening/tol_rho:  1.00D-10
          AO Gaussian exp screening on grid/accAOfunc:  14
          CD Gaussian exp screening on grid/accCDfunc:  20
          XC Gaussian exp screening on grid/accXCfunc:  20
          Schwarz screening/accCoul:  1.00D-08


 Loading old vectors from job with title :




      Symmetry analysis of molecular orbitals - initial
      -------------------------------------------------

  Numbering of irreducible representations: 

     1 a1          2 a2          3 b1          4 b2      

  Orbital symmetries:

     1 a1          2 a1          3 b1          4 a1          5 b2      
     6 a1          7 b1          8 a1          9 b2         10 a1      
    11 b1         12 b1         13 a1         14 a2         15 a1      

   Time after variat. SCF:      1.2
   Time prior to 1st pass:      1.2

 Grid_pts file          = ./h2o-dat.gridpts.00
 Record size in doubles =  12289        No. of grid_pts per rec  =   3070
 Max. records in memory =      2        Max. recs in file   =   4694736


           Memory utilization after 1st SCF pass: 
           Heap Space remaining (MW):       13.08            13080564
          Stack Space remaining (MW):      134.22           134217372

   convergence    iter        energy       DeltaE   RMS-Dens  Diis-err    time
 ---------------- ----- ----------------- --------- --------- ---------  ------
 d= 0,ls=0.0,diis     1    -76.3593665498 -8.54D+01  3.21D-04  1.02D-04     1.4
 d= 0,ls=0.0,diis     2    -76.3593768516 -1.03D-05  7.55D-05  1.31D-05     1.4
 d= 0,ls=0.0,diis     3    -76.3593760884  7.63D-07  4.61D-05  2.19D-05     1.5
 d= 0,ls=0.0,diis     4    -76.3593780789 -1.99D-06  5.56D-06  2.87D-07     1.5
 d= 0,ls=0.0,diis     5    -76.3593781077 -2.88D-08  3.52D-07  6.86D-10     1.6


         Total DFT energy =      -76.359378107658
      One electron energy =     -122.630821976317
           Coulomb energy =       46.444122542849
    Exchange-Corr. energy =       -9.217156565279
 Nuclear repulsion energy =        9.044477891090

 Numeric. integr. density =        9.999999360289

     Total iterative time =      0.4s



                  Occupations of the irreducible representations
                  ----------------------------------------------

                     irrep           alpha         beta
                     --------     --------     --------
                     a1                3.0          3.0
                     a2                0.0          0.0
                     b1                1.0          1.0
                     b2                1.0          1.0


                       DFT Final Molecular Orbital Analysis
                       ------------------------------------

 Vector    1  Occ=2.000000D+00  E=-1.878136D+01  Symmetry=a1
              MO Center= -1.1D-17,  4.1D-22, -1.2D-01, r^2= 1.5D-02
   Bfn.  Coefficient  Atom+Function         Bfn.  Coefficient  Atom+Function  
  ----- ------------  ---------------      ----- ------------  ---------------
     1      1.005016  1 O  s          

 Vector    2  Occ=2.000000D+00  E=-9.293822D-01  Symmetry=a1
              MO Center=  2.0D-16, -9.0D-17,  8.3D-02, r^2= 5.0D-01
   Bfn.  Coefficient  Atom+Function         Bfn.  Coefficient  Atom+Function  
  ----- ------------  ---------------      ----- ------------  ---------------
     2      0.447780  1 O  s                  3      0.362352  1 O  s          
    24      0.212852  2 H  s                 33      0.212852  3 H  s          
     7      0.117865  1 O  pz                 4      0.069410  1 O  s          
    27     -0.036184  2 H  px                36      0.036184  3 H  px         
    25     -0.030393  2 H  s                 34     -0.030393  3 H  s          

 Vector    3  Occ=2.000000D+00  E=-4.799839D-01  Symmetry=b1
              MO Center=  3.0D-17,  3.0D-31,  9.6D-02, r^2= 7.9D-01
   Bfn.  Coefficient  Atom+Function         Bfn.  Coefficient  Atom+Function  
  ----- ------------  ---------------      ----- ------------  ---------------
     5      0.516258  1 O  px                24      0.362347  2 H  s          
    33     -0.362347  3 H  s                  8      0.147485  1 O  px         
    25      0.130117  2 H  s                 34     -0.130117  3 H  s          
    22      0.043629  1 O  d  1              29     -0.031593  2 H  pz         
    38      0.031593  3 H  pz         

 Vector    4  Occ=2.000000D+00  E=-3.437297D-01  Symmetry=a1
              MO Center= -4.7D-16, -6.9D-16, -1.8D-01, r^2= 7.6D-01
   Bfn.  Coefficient  Atom+Function         Bfn.  Coefficient  Atom+Function  
  ----- ------------  ---------------      ----- ------------  ---------------
     7      0.548965  1 O  pz                 3     -0.336523  1 O  s          
    10      0.286829  1 O  pz                24      0.211457  2 H  s          
    33      0.211457  3 H  s                  2     -0.171588  1 O  s          
     4     -0.110763  1 O  s                 25      0.076433  2 H  s          
    34      0.076433  3 H  s                 13      0.051841  1 O  pz         

 Vector    5  Occ=2.000000D+00  E=-2.646458D-01  Symmetry=b2
              MO Center= -3.7D-16,  5.9D-16, -7.5D-02, r^2= 7.3D-01
   Bfn.  Coefficient  Atom+Function         Bfn.  Coefficient  Atom+Function  
  ----- ------------  ---------------      ----- ------------  ---------------
     6      0.632835  1 O  py                 9      0.413276  1 O  py         
    12      0.098306  1 O  py                31      0.029111  2 H  py         
    40      0.029111  3 H  py                28      0.027984  2 H  py         
    37      0.027984  3 H  py         

 Vector    6  Occ=0.000000D+00  E=-3.602621D-02  Symmetry=a1
              MO Center=  2.9D-17, -6.7D-17,  7.4D-01, r^2= 6.6D+00
   Bfn.  Coefficient  Atom+Function         Bfn.  Coefficient  Atom+Function  
  ----- ------------  ---------------      ----- ------------  ---------------
    26      0.480402  2 H  s                 35      0.480402  3 H  s          
     4     -0.296454  1 O  s                  3     -0.267610  1 O  s          
    25      0.236034  2 H  s                 34      0.236034  3 H  s          
     7     -0.174766  1 O  pz                10     -0.145522  1 O  pz         
     2     -0.143180  1 O  s                 24      0.073506  2 H  s          

 Vector    7  Occ=0.000000D+00  E= 1.804193D-02  Symmetry=b1
              MO Center=  2.7D-17,  2.3D-31,  7.2D-01, r^2= 1.1D+01
   Bfn.  Coefficient  Atom+Function         Bfn.  Coefficient  Atom+Function  
  ----- ------------  ---------------      ----- ------------  ---------------
    26      2.196200  2 H  s                 35     -2.196200  3 H  s          
    11     -0.399653  1 O  px                25      0.377716  2 H  s          
    34     -0.377716  3 H  s                  5     -0.201612  1 O  px         
     8     -0.180396  1 O  px                30      0.039569  2 H  px         
    39      0.039569  3 H  px                24      0.034002  2 H  s          

 Vector    8  Occ=0.000000D+00  E= 9.030286D-02  Symmetry=a1
              MO Center=  1.7D-14,  4.9D-16, -3.1D-01, r^2= 9.7D+00
   Bfn.  Coefficient  Atom+Function         Bfn.  Coefficient  Atom+Function  
  ----- ------------  ---------------      ----- ------------  ---------------
     4      3.078753  1 O  s                 13      1.312816  1 O  pz         
    25     -0.975361  2 H  s                 34     -0.975361  3 H  s          
    26     -0.826691  2 H  s                 35     -0.826691  3 H  s          
    30      0.284582  2 H  px                39     -0.284582  3 H  px         
     7     -0.266542  1 O  pz                32      0.210143  2 H  pz         

 Vector    9  Occ=0.000000D+00  E= 1.083017D-01  Symmetry=b2
              MO Center=  6.9D-18, -6.8D-16, -2.6D-01, r^2= 5.9D+00
   Bfn.  Coefficient  Atom+Function         Bfn.  Coefficient  Atom+Function  
  ----- ------------  ---------------      ----- ------------  ---------------
    12      1.271849  1 O  py                 9     -0.277937  1 O  py         
     6     -0.254527  1 O  py                31     -0.142949  2 H  py         
    40     -0.142949  3 H  py                20      0.034398  1 O  d -1       

 Vector   10  Occ=0.000000D+00  E= 1.182064D-01  Symmetry=a1
              MO Center= -3.9D-14,  8.5D-17,  2.9D-01, r^2= 7.6D+00
   Bfn.  Coefficient  Atom+Function         Bfn.  Coefficient  Atom+Function  
  ----- ------------  ---------------      ----- ------------  ---------------
    13      0.998026  1 O  pz                 4     -0.880908  1 O  s          
    26      0.544800  2 H  s                 35      0.544800  3 H  s          
    25     -0.440909  2 H  s                 34     -0.440909  3 H  s          
     3      0.286383  1 O  s                 30     -0.261622  2 H  px         
    39      0.261622  3 H  px                32     -0.224318  2 H  pz         

 Vector   11  Occ=0.000000D+00  E= 1.304686D-01  Symmetry=b1
              MO Center=  4.6D-15, -4.3D-16,  7.3D-01, r^2= 8.0D+00
   Bfn.  Coefficient  Atom+Function         Bfn.  Coefficient  Atom+Function  
  ----- ------------  ---------------      ----- ------------  ---------------
    26      2.226737  2 H  s                 35     -2.226737  3 H  s          
    11     -0.819611  1 O  px                32     -0.481240  2 H  pz         
    41      0.481240  3 H  pz                30     -0.428290  2 H  px         
    39     -0.428290  3 H  px                 5      0.359031  1 O  px         
    25      0.184966  2 H  s                 34     -0.184966  3 H  s          

 Vector   12  Occ=0.000000D+00  E= 1.662298D-01  Symmetry=b1
              MO Center=  8.4D-15, -5.5D-30, -5.0D-01, r^2= 8.1D+00
   Bfn.  Coefficient  Atom+Function         Bfn.  Coefficient  Atom+Function  
  ----- ------------  ---------------      ----- ------------  ---------------
    11      2.801524  1 O  px                25     -2.213720  2 H  s          
    34      2.213720  3 H  s                 26     -2.188327  2 H  s          
    35      2.188327  3 H  s                  8      0.266449  1 O  px         
    30      0.227606  2 H  px                39      0.227606  3 H  px         
    24     -0.168766  2 H  s                 33      0.168766  3 H  s          

 Vector   13  Occ=0.000000D+00  E= 2.072949D-01  Symmetry=a1
              MO Center=  2.7D-15,  1.6D-16,  1.5D-01, r^2= 5.0D+00
   Bfn.  Coefficient  Atom+Function         Bfn.  Coefficient  Atom+Function  
  ----- ------------  ---------------      ----- ------------  ---------------
     4      4.729789  1 O  s                 25     -2.235953  2 H  s          
    34     -2.235953  3 H  s                 13      0.602305  1 O  pz         
    32      0.511399  2 H  pz                41      0.511399  3 H  pz         
    26     -0.435334  2 H  s                 35     -0.435334  3 H  s          
    30     -0.251119  2 H  px                39      0.251119  3 H  px         

 Vector   14  Occ=0.000000D+00  E= 2.599259D-01  Symmetry=a2
              MO Center= -3.3D-32,  4.4D-16,  5.1D-01, r^2= 3.8D+00
   Bfn.  Coefficient  Atom+Function         Bfn.  Coefficient  Atom+Function  
  ----- ------------  ---------------      ----- ------------  ---------------
    31      1.082193  2 H  py                40     -1.082193  3 H  py         
    19     -0.067619  1 O  d -2              14      0.034874  1 O  d -2       

 Vector   15  Occ=0.000000D+00  E= 2.707648D-01  Symmetry=a1
              MO Center= -1.6D-15,  3.1D-17,  5.6D-03, r^2= 5.2D+00
   Bfn.  Coefficient  Atom+Function         Bfn.  Coefficient  Atom+Function  
  ----- ------------  ---------------      ----- ------------  ---------------
     4      4.657952  1 O  s                 25     -2.326549  2 H  s          
    34     -2.326549  3 H  s                 13      1.978657  1 O  pz         
    10      0.658306  1 O  pz                32     -0.600431  2 H  pz         
    41     -0.600431  3 H  pz                30      0.420556  2 H  px         
    39     -0.420556  3 H  px                26     -0.393224  2 H  s          

 Vector   16  Occ=0.000000D+00  E= 2.997810D-01  Symmetry=b2
              MO Center= -4.4D-16,  1.1D-16,  3.0D-01, r^2= 4.4D+00
   Bfn.  Coefficient  Atom+Function         Bfn.  Coefficient  Atom+Function  
  ----- ------------  ---------------      ----- ------------  ---------------
    12      1.273234  1 O  py                31     -1.155587  2 H  py         
    40     -1.155587  3 H  py                 9      0.545657  1 O  py         
     6      0.169439  1 O  py         

 Vector   17  Occ=0.000000D+00  E= 4.223258D-01  Symmetry=b1
              MO Center= -6.7D-15,  1.2D-16,  4.0D-01, r^2= 5.4D+00
   Bfn.  Coefficient  Atom+Function         Bfn.  Coefficient  Atom+Function  
  ----- ------------  ---------------      ----- ------------  ---------------
    11      2.311211  1 O  px                30     -1.839529  2 H  px         
    39     -1.839529  3 H  px                32      1.234512  2 H  pz         
    41     -1.234512  3 H  pz                26     -1.065221  2 H  s          
    35      1.065221  3 H  s                 25      0.425663  2 H  s          
    34     -0.425663  3 H  s                  8      0.264742  1 O  px         

 Vector   18  Occ=0.000000D+00  E= 4.733689D-01  Symmetry=a1
              MO Center=  1.1D-14, -2.6D-17,  6.8D-01, r^2= 5.0D+00
   Bfn.  Coefficient  Atom+Function         Bfn.  Coefficient  Atom+Function  
  ----- ------------  ---------------      ----- ------------  ---------------
     4      4.926239  1 O  s                 25     -2.603220  2 H  s          
    34     -2.603220  3 H  s                  3      2.333998  1 O  s          
    30      1.272576  2 H  px                39     -1.272576  3 H  px         
    32      1.135375  2 H  pz                41      1.135375  3 H  pz         
    26     -0.592693  2 H  s                 35     -0.592693  3 H  s          

 Vector   19  Occ=0.000000D+00  E= 4.938753D-01  Symmetry=b1
              MO Center= -6.4D-15, -4.4D-16,  5.5D-01, r^2= 4.9D+00
   Bfn.  Coefficient  Atom+Function         Bfn.  Coefficient  Atom+Function  
  ----- ------------  ---------------      ----- ------------  ---------------
    25      5.872800  2 H  s                 34     -5.872800  3 H  s          
    30     -2.872807  2 H  px                39     -2.872807  3 H  px         
    11     -1.457412  1 O  px                32     -1.356087  2 H  pz         
    41      1.356087  3 H  pz                26      1.306944  2 H  s          
    35     -1.306944  3 H  s                  8     -1.189616  1 O  px         

 Vector   20  Occ=0.000000D+00  E= 5.908604D-01  Symmetry=b1
              MO Center= -1.9D-15,  1.2D-32,  2.5D-02, r^2= 4.0D+00
   Bfn.  Coefficient  Atom+Function         Bfn.  Coefficient  Atom+Function  
  ----- ------------  ---------------      ----- ------------  ---------------
    25      6.220567  2 H  s                 34     -6.220567  3 H  s          
    11     -2.306202  1 O  px                30     -1.767465  2 H  px         
    39     -1.767465  3 H  px                 8     -1.017031  1 O  px         
    26      0.811072  2 H  s                 35     -0.811072  3 H  s          
    32     -0.631863  2 H  pz                41      0.631863  3 H  pz         

 Vector   21  Occ=0.000000D+00  E= 7.019315D-01  Symmetry=a1
              MO Center= -2.2D-14, -1.8D-16,  2.7D-01, r^2= 3.2D+00
   Bfn.  Coefficient  Atom+Function         Bfn.  Coefficient  Atom+Function  
  ----- ------------  ---------------      ----- ------------  ---------------
     4      5.997750  1 O  s                 25     -3.999145  2 H  s          
    34     -3.999145  3 H  s                 13      1.489078  1 O  pz         
     3      1.311806  1 O  s                 23      0.652473  1 O  d  2       
    24      0.561656  2 H  s                 33      0.561656  3 H  s          
    32      0.469186  2 H  pz                41      0.469186  3 H  pz         

 Vector   22  Occ=0.000000D+00  E= 8.667735D-01  Symmetry=b2
              MO Center= -1.3D-14, -8.9D-16, -4.2D-01, r^2= 2.0D+00
   Bfn.  Coefficient  Atom+Function         Bfn.  Coefficient  Atom+Function  
  ----- ------------  ---------------      ----- ------------  ---------------
    20      1.078593  1 O  d -1              12      0.796975  1 O  py         
    31     -0.585767  2 H  py                40     -0.585767  3 H  py         
     6      0.259634  1 O  py                 9     -0.086553  1 O  py         

 Vector   23  Occ=0.000000D+00  E= 8.786283D-01  Symmetry=a1
              MO Center= -1.1D-14,  1.9D-16, -4.1D-01, r^2= 2.1D+00
   Bfn.  Coefficient  Atom+Function         Bfn.  Coefficient  Atom+Function  
  ----- ------------  ---------------      ----- ------------  ---------------
    21     -1.092783  1 O  d  0               4      1.080838  1 O  s          
    25     -0.750625  2 H  s                 34     -0.750625  3 H  s          
    32      0.719580  2 H  pz                41      0.719580  3 H  pz         
     3      0.625806  1 O  s                 13     -0.528442  1 O  pz         
    10      0.186782  1 O  pz                 7     -0.168136  1 O  pz         

 Vector   24  Occ=0.000000D+00  E= 9.112356D-01  Symmetry=a2
              MO Center=  1.6D-14,  2.1D-15,  3.5D-02, r^2= 2.1D+00
   Bfn.  Coefficient  Atom+Function         Bfn.  Coefficient  Atom+Function  
  ----- ------------  ---------------      ----- ------------  ---------------
    19      1.204550  1 O  d -2              31     -0.782336  2 H  py         
    40      0.782336  3 H  py                28      0.053244  2 H  py         
    37     -0.053244  3 H  py         

 Vector   25  Occ=0.000000D+00  E= 1.010611D+00  Symmetry=a1
              MO Center= -1.4D-15,  4.9D-17,  1.5D-01, r^2= 2.1D+00
   Bfn.  Coefficient  Atom+Function         Bfn.  Coefficient  Atom+Function  
  ----- ------------  ---------------      ----- ------------  ---------------
     4      3.592479  1 O  s                 25     -2.562273  2 H  s          
    34     -2.562273  3 H  s                  3      1.481782  1 O  s          
    10      1.242955  1 O  pz                13      0.807867  1 O  pz         
    23     -0.770869  1 O  d  2              30      0.751342  2 H  px         
    39     -0.751342  3 H  px                 7     -0.562751  1 O  pz         

 Vector   26  Occ=0.000000D+00  E= 1.130611D+00  Symmetry=b2
              MO Center= -8.4D-15,  1.6D-16,  2.3D-01, r^2= 1.6D+00
   Bfn.  Coefficient  Atom+Function         Bfn.  Coefficient  Atom+Function  
  ----- ------------  ---------------      ----- ------------  ---------------
     9      1.613550  1 O  py                 6     -0.941562  1 O  py         
    31     -0.638542  2 H  py                40     -0.638542  3 H  py         
    20      0.451456  1 O  d -1              12      0.173268  1 O  py         

 Vector   27  Occ=0.000000D+00  E= 1.168636D+00  Symmetry=b1
              MO Center=  1.5D-14, -1.9D-15, -2.7D-01, r^2= 2.1D+00
   Bfn.  Coefficient  Atom+Function         Bfn.  Coefficient  Atom+Function  
  ----- ------------  ---------------      ----- ------------  ---------------
    25      4.714503  2 H  s                 34     -4.714503  3 H  s          
     8     -2.029765  1 O  px                30     -1.369172  2 H  px         
    39     -1.369172  3 H  px                32     -1.178510  2 H  pz         
    41      1.178510  3 H  pz                11     -1.129603  1 O  px         
    22     -0.780496  1 O  d  1               5      0.600169  1 O  px         

 Vector   28  Occ=0.000000D+00  E= 1.252943D+00  Symmetry=a1
              MO Center=  1.3D-15,  5.0D-16, -2.5D-01, r^2= 1.8D+00
   Bfn.  Coefficient  Atom+Function         Bfn.  Coefficient  Atom+Function  
  ----- ------------  ---------------      ----- ------------  ---------------
     4      1.593682  1 O  s                 10      1.572130  1 O  pz         
    24     -0.862344  2 H  s                 33     -0.862344  3 H  s          
    23      0.810591  1 O  d  2               7     -0.652833  1 O  pz         
     2      0.517275  1 O  s                  3     -0.438112  1 O  s          
    25     -0.372942  2 H  s                 34     -0.372942  3 H  s          

 Vector   29  Occ=0.000000D+00  E= 1.670748D+00  Symmetry=b1
              MO Center=  1.4D-14, -8.9D-16,  3.1D-01, r^2= 1.8D+00
   Bfn.  Coefficient  Atom+Function         Bfn.  Coefficient  Atom+Function  
  ----- ------------  ---------------      ----- ------------  ---------------
    11      1.079061  1 O  px                25     -0.840565  2 H  s          
    34      0.840565  3 H  s                  8      0.786126  1 O  px         
    32      0.691427  2 H  pz                41     -0.691427  3 H  pz         
    22     -0.654772  1 O  d  1              29     -0.656977  2 H  pz         
    38      0.656977  3 H  pz                26     -0.496856  2 H  s          

 Vector   30  Occ=0.000000D+00  E= 1.688196D+00  Symmetry=a2
              MO Center=  5.6D-14,  7.4D-16,  2.7D-01, r^2= 1.5D+00
   Bfn.  Coefficient  Atom+Function         Bfn.  Coefficient  Atom+Function  
  ----- ------------  ---------------      ----- ------------  ---------------
    28     -0.938121  2 H  py                37      0.938121  3 H  py         
    19      0.861378  1 O  d -2              31      0.105211  2 H  py         
    40     -0.105211  3 H  py                14     -0.070438  1 O  d -2       

 Vector   31  Occ=0.000000D+00  E= 1.783774D+00  Symmetry=b2
              MO Center= -5.0D-14,  2.0D-16,  4.2D-01, r^2= 1.4D+00
   Bfn.  Coefficient  Atom+Function         Bfn.  Coefficient  Atom+Function  
  ----- ------------  ---------------      ----- ------------  ---------------
    28      0.984422  2 H  py                37      0.984422  3 H  py         
     9     -0.775218  1 O  py                20     -0.696936  1 O  d -1       
    12      0.187094  1 O  py                31     -0.098612  2 H  py         
    40     -0.098612  3 H  py                15      0.061431  1 O  d -1       

 Vector   32  Occ=0.000000D+00  E= 2.045180D+00  Symmetry=a1
              MO Center= -5.0D-12, -1.9D-17,  2.2D-01, r^2= 1.7D+00
   Bfn.  Coefficient  Atom+Function         Bfn.  Coefficient  Atom+Function  
  ----- ------------  ---------------      ----- ------------  ---------------
     3      1.743476  1 O  s                  4      1.341864  1 O  s          
    21     -1.257949  1 O  d  0              25     -1.079225  2 H  s          
    34     -1.079225  3 H  s                 29      0.921645  2 H  pz         
    38      0.921645  3 H  pz                23      0.710108  1 O  d  2       
     2     -0.691019  1 O  s                 27     -0.651674  2 H  px         

 Vector   33  Occ=0.000000D+00  E= 2.045394D+00  Symmetry=b1
              MO Center=  5.0D-12,  9.8D-17,  3.7D-01, r^2= 1.4D+00
   Bfn.  Coefficient  Atom+Function         Bfn.  Coefficient  Atom+Function  
  ----- ------------  ---------------      ----- ------------  ---------------
    25      2.273387  2 H  s                 34     -2.273387  3 H  s          
     8     -1.684312  1 O  px                30     -1.147348  2 H  px         
    39     -1.147348  3 H  px                 5      0.890514  1 O  px         
    27      0.715471  2 H  px                36      0.715471  3 H  px         
    32     -0.540881  2 H  pz                41      0.540881  3 H  pz         

 Vector   34  Occ=0.000000D+00  E= 2.185625D+00  Symmetry=a1
              MO Center=  3.1D-14,  5.6D-18,  4.2D-01, r^2= 1.4D+00
   Bfn.  Coefficient  Atom+Function         Bfn.  Coefficient  Atom+Function  
  ----- ------------  ---------------      ----- ------------  ---------------
     3      1.761305  1 O  s                  2     -1.498681  1 O  s          
     4      1.170429  1 O  s                 25     -0.822251  2 H  s          
    34     -0.822251  3 H  s                  1     -0.657389  1 O  s          
    29     -0.620070  2 H  pz                38     -0.620070  3 H  pz         
    30      0.558506  2 H  px                39     -0.558506  3 H  px         

 Vector   35  Occ=0.000000D+00  E= 2.335385D+00  Symmetry=b1
              MO Center= -1.7D-14,  2.3D-16,  2.1D-01, r^2= 1.7D+00
[...]
              MO Center=  7.4D-14,  6.2D-17, -1.3D-02, r^2= 3.4D-01
   Bfn.  Coefficient  Atom+Function         Bfn.  Coefficient  Atom+Function  
  ----- ------------  ---------------      ----- ------------  ---------------
    15     12.130867  1 O  px               206     10.772822  2 H  px         
   333     10.772822  3 H  px                21     -9.714217  1 O  px         
    43     -9.047650  1 O  d  1              78     -4.845536  1 O  f  1       
    53      4.744191  1 O  d  1             193     -4.690410  2 H  s          
   320      4.690410  3 H  s                 38      4.471389  1 O  d  1       

 Vector  439  Occ=0.000000D+00  E= 4.007183D+01  Symmetry=a1
              MO Center=  8.0D-14, -1.2D-16,  3.7D-01, r^2= 7.2D-01
   Bfn.  Coefficient  Atom+Function         Bfn.  Coefficient  Atom+Function  
  ----- ------------  ---------------      ----- ------------  ---------------
     5     30.915757  1 O  s                  7    -12.871016  1 O  s          
    17     10.964196  1 O  pz                 6      7.651426  1 O  s          
     4     -7.106395  1 O  s                 23     -6.994737  1 O  pz         
   206      6.833108  2 H  px               333     -6.833108  3 H  px         
   208      6.438836  2 H  pz               335      6.438836  3 H  pz         

 Vector  440  Occ=0.000000D+00  E= 4.180011D+01  Symmetry=b1
              MO Center= -3.8D-13,  8.8D-17,  3.6D-01, r^2= 8.3D-01
   Bfn.  Coefficient  Atom+Function         Bfn.  Coefficient  Atom+Function  
  ----- ------------  ---------------      ----- ------------  ---------------
    15     27.831045  1 O  px               206     16.606982  2 H  px         
   333     16.606982  3 H  px                21    -14.708464  1 O  px         
    43    -13.789660  1 O  d  1             208     11.520751  2 H  pz         
   335    -11.520751  3 H  pz                18     10.349418  1 O  px         
   193    -10.116825  2 H  s                320     10.116825  3 H  s          

 Vector  441  Occ=0.000000D+00  E= 1.052034D+02  Symmetry=a1
              MO Center= -1.5D-14, -7.3D-17, -1.2D-01, r^2= 1.1D-01
   Bfn.  Coefficient  Atom+Function         Bfn.  Coefficient  Atom+Function  
  ----- ------------  ---------------      ----- ------------  ---------------
     2     30.460052  1 O  s                  1     27.331822  1 O  s          
     3      7.623837  1 O  s                  5     -6.984313  1 O  s          
     6      7.000145  1 O  s                  4     -6.828995  1 O  s          
     7     -5.969245  1 O  s                 17     -5.120629  1 O  pz         
    20      4.148258  1 O  pz               192     -3.689479  2 H  s          


 center of mass
 --------------
 x =   0.00000000 y =   0.00000000 z =  -0.09768415

 moments of inertia (a.u.)
 ------------------
           2.264236040284           0.000000000000           0.000000000000
           0.000000000000           6.470860245856           0.000000000000
           0.000000000000           0.000000000000           4.206624205572

     Multipole analysis of the density
     ---------------------------------

     L   x y z        total         alpha         beta         nuclear
     -   - - -        -----         -----         ----         -------
     0   0 0 0     -0.000000     -5.000000     -5.000000     10.000000

     1   1 0 0     -0.000000     -0.000000     -0.000000      0.000000
     1   0 1 0     -0.000000     -0.000000     -0.000000      0.000000
     1   0 0 1      0.709207      0.347690      0.347690      0.013827

     2   2 0 0     -3.381344     -3.777654     -3.777654      4.173963
     2   1 1 0      0.000000      0.000000      0.000000      0.000000
     2   1 0 1      0.000000      0.000000      0.000000      0.000000
     2   0 2 0     -5.866869     -2.933435     -2.933435      0.000000
     2   0 1 1     -0.000000     -0.000000     -0.000000      0.000000
     2   0 0 2     -4.862501     -3.443170     -3.443170      2.023840

 Line search: 
     step= 1.00 grad=-3.3D-08 hess= 4.5D-08 energy=    -76.388586 mode=accept  
 new step= 1.00                   predicted energy=    -76.388586
  no constraints, skipping    0.0000000000000000     
  no constraints, skipping    0.0000000000000000     
  no constraints, skipping    0.0000000000000000     

          --------
          Step   1
          --------


                         Geometry "geometry" -> "geometry"
                         ---------------------------------

 Output coordinates in angstroms (scale by  1.889725989 to convert to a.u.)

  No.       Tag          Charge          X              Y              Z
 ---- ---------------- ---------- -------------- -------------- --------------
    1 O                    8.0000     0.00000000     0.00000000    -0.11829849
    2 H                    1.0000     0.76447002     0.00000000     0.47685250
    3 H                    1.0000    -0.76447002     0.00000000     0.47685250

      Atomic Mass 
      ----------- 

      O                 15.994910
      H                  1.007825


 Effective nuclear repulsion energy (a.u.)       9.0854032517

            Nuclear Dipole moment (a.u.) 
            ----------------------------
        X                 Y               Z
 ---------------- ---------------- ----------------
     0.0000000000     0.0000000000     0.0138271935

      Symmetry information
      --------------------

 Group name             C2v       
 Group number             16
 Group order               4
 No. of unique centers     2

      Symmetry unique atoms

     1    2


                                 NWChem DFT Module
                                 -----------------




 Summary of "ao basis" -> "cc-pv6z" (spherical)
 ------------------------------------------------------------------------------
       Tag                 Description            Shells   Functions and Types
 ---------------- ------------------------------  ------  ---------------------
 O                        aug-cc-pv6z               35      189   8s7p6d5f4g3h2i
 H                        aug-cc-pv6z               27      127   7s6p5d4f3g2h


      Symmetry analysis of basis
      --------------------------

        a1        143
        a2         81
        b1        123
        b2         96


  The DFT is already converged 

         Total DFT energy =    -76.388586241059


            General Information
            -------------------
          SCF calculation type: DFT
          Wavefunction type:  closed shell.
          No. of atoms     :     3
          No. of electrons :    10
           Alpha electrons :     5
            Beta electrons :     5
          Charge           :     0
          Spin multiplicity:     1
          Use of symmetry is: on ; symmetry adaption is: on 
          Maximum number of iterations: 500
          This is a Direct SCF calculation.
          AO basis - number of functions:   443
                     number of shells:    89
          Convergence on energy requested:  1.00D-06
          Convergence on density requested:  1.00D-05
          Convergence on gradient requested:  5.00D-04

              XC Information
              --------------
          PerdewBurkeErnzerhof Exchange Functional  1.000          
            Perdew 1991 LDA Correlation Functional  1.000 local    
           PerdewBurkeErnz. Correlation Functional  1.000 non-local

             Grid Information
             ----------------
          Grid used for XC integration:  medium    
          Radial quadrature: Mura-Knowles        
          Angular quadrature: Lebedev. 
          Tag              B.-S. Rad. Rad. Pts. Rad. Cut. Ang. Pts.
          ---              ---------- --------- --------- ---------
          O                   0.60       49          12.0       434
          H                   0.35       45          13.0       434
          Grid pruning is: on 
          Number of quadrature shells:    94
          Spatial weights used:  Erf1

          Convergence Information
          -----------------------
          Convergence aids based upon iterative change in 
          total energy or number of iterations. 
          Levelshifting, if invoked, occurs when the 
          HOMO/LUMO gap drops below (HL_TOL):  1.00D-02
          DIIS, if invoked, will attempt to extrapolate 
          using up to (NFOCK): 10 stored Fock matrices.

                    Damping( 0%)  Levelshifting(0.5)       DIIS
                  --------------- ------------------- ---------------
          dE  on:    start            ASAP                start   
          dE off:    2 iters        500 iters           500 iters 


      Screening Tolerance Information
      -------------------------------
          Density screening/tol_rho:  1.00D-10
          AO Gaussian exp screening on grid/accAOfunc:  14
          CD Gaussian exp screening on grid/accCDfunc:  20
          XC Gaussian exp screening on grid/accXCfunc:  20
          Schwarz screening/accCoul:  1.00D-08

  texas integral default override: limxmem =             50000000
  texas integral default override: limxmem =             50000000


                            NWChem DFT Gradient Module
                            --------------------------



  charge          =   0.00
  wavefunction    = closed shell

  Using symmetry
  texas integral default override: limxmem =             50000000
  texas integral default override: limxmem =             50000000


                         DFT ENERGY GRADIENTS

    atom               coordinates                        gradient
                 x          y          z           x          y          z
   1 O       0.000000   0.000000  -0.223552    0.000000   0.000000  -0.000027
   2 H       1.444639   0.000000   0.901121    0.000009   0.000000   0.000014
   3 H      -1.444639   0.000000   0.901121   -0.000009   0.000000   0.000014

                 ----------------------------------------
                 |  Time  |  1-e(secs)   |  2-e(secs)   |
                 ----------------------------------------
                 |  CPU   |       0.15   |      46.09   |
                 ----------------------------------------
                 |  WALL  |       0.15   |      57.25   |
                 ----------------------------------------
  no constraints, skipping    0.0000000000000000     

  Step       Energy      Delta E   Gmax     Grms     Xrms     Xmax   Walltime
  ---- ---------------- -------- -------- -------- -------- -------- --------
@    1     -76.38858624  1.2D-08  0.00002  0.00001  0.00009  0.00019   2873.2
                                     ok       ok       ok       ok  



                                Z-matrix (autoz)
                                -------- 

 Units are Angstrom for bonds and degrees for angles

      Type          Name      I     J     K     L     M      Value     Gradient
      ----------- --------  ----- ----- ----- ----- ----- ---------- ----------
    1 Stretch                  1     2                       0.96882    0.00002
    2 Stretch                  1     3                       0.96882    0.00002
    3 Bend                     2     1     3               104.19745   -0.00001


      ----------------------
      Optimization converged
      ----------------------


  Step       Energy      Delta E   Gmax     Grms     Xrms     Xmax   Walltime
  ---- ---------------- -------- -------- -------- -------- -------- --------
@    1     -76.38858624  1.2D-08  0.00002  0.00001  0.00009  0.00019   2873.2
                                     ok       ok       ok       ok  



                                Z-matrix (autoz)
                                -------- 

 Units are Angstrom for bonds and degrees for angles

      Type          Name      I     J     K     L     M      Value     Gradient
      ----------- --------  ----- ----- ----- ----- ----- ---------- ----------
    1 Stretch                  1     2                       0.96882    0.00002
    2 Stretch                  1     3                       0.96882    0.00002
    3 Bend                     2     1     3               104.19745   -0.00001



                         Geometry "geometry" -> "geometry"
                         ---------------------------------

 Output coordinates in angstroms (scale by  1.889725989 to convert to a.u.)

  No.       Tag          Charge          X              Y              Z
 ---- ---------------- ---------- -------------- -------------- --------------
    1 O                    8.0000     0.00000000     0.00000000    -0.11829849
    2 H                    1.0000     0.76447002     0.00000000     0.47685250
    3 H                    1.0000    -0.76447002     0.00000000     0.47685250

      Atomic Mass 
      ----------- 

      O                 15.994910
      H                  1.007825


 Effective nuclear repulsion energy (a.u.)       9.0854032517

            Nuclear Dipole moment (a.u.) 
            ----------------------------
        X                 Y               Z
 ---------------- ---------------- ----------------
     0.0000000000     0.0000000000     0.0138271935

      Symmetry information
      --------------------

 Group name             C2v       
 Group number             16
 Group order               4
 No. of unique centers     2

      Symmetry unique atoms

     1    2


                Final and change from initial internal coordinates
                --------------------------------------------------



                                Z-matrix (autoz)
                                -------- 

 Units are Angstrom for bonds and degrees for angles

      Type          Name      I     J     K     L     M      Value       Change
      ----------- --------  ----- ----- ----- ----- ----- ---------- ----------
    1 Stretch                  1     2                       0.96882   -0.00010
    2 Stretch                  1     3                       0.96882   -0.00010
    3 Bend                     2     1     3               104.19745   -0.00501

 ==============================================================================
                                internuclear distances
 ------------------------------------------------------------------------------
       center one      |      center two      | atomic units |  angstroms
 ------------------------------------------------------------------------------
    2 H                |   1 O                |     1.83081  |     0.96882
    3 H                |   1 O                |     1.83081  |     0.96882
 ------------------------------------------------------------------------------
                         number of included internuclear distances:          2
 ==============================================================================



 ==============================================================================
                                 internuclear angles
 ------------------------------------------------------------------------------
        center 1       |       center 2       |       center 3       |  degrees
 ------------------------------------------------------------------------------
    2 H                |   1 O                |   3 H                |   104.20
 ------------------------------------------------------------------------------
                            number of included internuclear angles:          1
 ==============================================================================




 Task  times  cpu:     2624.8s     wall:     2661.9s


                                NWChem Input Module
                                -------------------


 Summary of allocated global arrays
-----------------------------------
  No active global arrays


MA_summarize_allocated_blocks: starting scan ...
MA_summarize_allocated_blocks: scan completed: 0 heap blocks, 0 stack blocks
MA usage statistics:

	allocation statistics:
					      heap	     stack
					      ----	     -----
	current number of blocks	         0	         0
	maximum number of blocks	        25	        58
	current total bytes		         0	         0
	maximum total bytes		    288896	 572585512
	maximum total K-bytes		       289	    572586
	maximum total M-bytes		         1	       573


                                     CITATION
                                     --------
                Please cite the following reference when publishing
                           results obtained with NWChem:

          E. Apra, E. J. Bylaska, W. A. de Jong, N. Govind, K. Kowalski,
       T. P. Straatsma, M. Valiev, H. J. J. van Dam, Y. Alexeev, J. Anchell,
       V. Anisimov, F. W. Aquino, R. Atta-Fynn, J. Autschbach, N. P. Bauman,
     J. C. Becca, D. E. Bernholdt, K. Bhaskaran-Nair, S. Bogatko, P. Borowski,
         J. Boschen, J. Brabec, A. Bruner, E. Cauet, Y. Chen, G. N. Chuev,
      C. J. Cramer, J. Daily, M. J. O. Deegan, T. H. Dunning Jr., M. Dupuis,
   K. G. Dyall, G. I. Fann, S. A. Fischer, A. Fonari, H. Fruchtl, L. Gagliardi,
      J. Garza, N. Gawande, S. Ghosh, K. Glaesemann, A. W. Gotz, J. Hammond,
       V. Helms, E. D. Hermes, K. Hirao, S. Hirata, M. Jacquelin, L. Jensen,
   B. G. Johnson, H. Jonsson, R. A. Kendall, M. Klemm, R. Kobayashi, V. Konkov,
      S. Krishnamoorthy, M. Krishnan, Z. Lin, R. D. Lins, R. J. Littlefield,
      A. J. Logsdail, K. Lopata, W. Ma, A. V. Marenich, J. Martin del Campo,
   D. Mejia-Rodriguez, J. E. Moore, J. M. Mullin, T. Nakajima, D. R. Nascimento,
    J. A. Nichols, P. J. Nichols, J. Nieplocha, A. Otero-de-la-Roza, B. Palmer,
    A. Panyala, T. Pirojsirikul, B. Peng, R. Peverati, J. Pittner, L. Pollack,
   R. M. Richard, P. Sadayappan, G. C. Schatz, W. A. Shelton, D. W. Silverstein,
   D. M. A. Smith, T. A. Soares, D. Song, M. Swart, H. L. Taylor, G. S. Thomas,
            V. Tipparaju, D. G. Truhlar, K. Tsemekhman, T. Van Voorhis,
      A. Vazquez-Mayagoitia, P. Verma, O. Villa, A. Vishnu, K. D. Vogiatzis,
        D. Wang, J. H. Weare, M. J. Williamson, T. L. Windus, K. Wolinski,
        A. T. Wong, Q. Wu, C. Yang, Q. Yu, M. Zacharias, Z. Zhang, Y. Zhao,
                                and R. J. Harrison
                        "NWChem: Past, present, and future
                         J. Chem. Phys. 152, 184102 (2020)
                               doi:10.1063/5.0004997

                                      AUTHORS
                                      -------
  E. Apra, E. J. Bylaska, N. Govind, K. Kowalski, M. Valiev, D. Mejia-Rodriguez,
       A. Kunitsa, N. P. Bauman, A. Panyala, W. A. de Jong, T. P. Straatsma,
        H. J. J. van Dam, D. Wang, T. L. Windus, J. Hammond, J. Autschbach,
    K. Bhaskaran-Nair, J. Brabec, K. Lopata, S. A. Fischer, S. Krishnamoorthy,
     M. Jacquelin, W. Ma, M. Klemm, O. Villa, Y. Chen, V. Anisimov, F. Aquino,
    S. Hirata, M. T. Hackler, Eric Hermes, L. Jensen, J. E. Moore, J. C. Becca,
      V. Konjkov, T. Risthaus, M. Malagoli, A. Marenich, A. Otero-de-la-Roza,
        J. Mullin, P. Nichols, R. Peverati, J. Pittner, Y. Zhao, P.-D. Fan,
        A. Fonari, M. J. Williamson, R. J. Harrison, J. R. Rehr, M. Dupuis,
     D. Silverstein, D. M. A. Smith, J. Nieplocha, V. Tipparaju, M. Krishnan,
     B. E. Van Kuiken, A. Vazquez-Mayagoitia, M. Swart, Q. Wu, T. Van Voorhis,
     A. A. Auer, M. Nooijen, L. D. Crosby, E. Brown, G. Cisneros, G. I. Fann,
   H. Fruchtl, J. Garza, K. Hirao, R. A. Kendall, J. A. Nichols, K. Tsemekhman,
    K. Wolinski, J. Anchell, D. E. Bernholdt, P. Borowski, T. Clark, D. Clerc,
   H. Dachsel, M. J. O. Deegan, K. Dyall, D. Elwood, E. Glendening, M. Gutowski,
   A. C. Hess, J. Jaffe, B. G. Johnson, J. Ju, R. Kobayashi, R. Kutteh, Z. Lin,
   R. Littlefield, X. Long, B. Meng, T. Nakajima, S. Niu, L. Pollack, M. Rosing,
   K. Glaesemann, G. Sandrone, M. Stave, H. Taylor, G. Thomas, J. H. van Lenthe,
                               A. T. Wong, Z. Zhang.

 Total times  cpu:     2825.2s     wall:     2873.4s
