 argument  1 = /home/hvandam/nwchem-1-srp-hpc/QA/tests/ZSM-5/nwc/h2o-dft-pbe-thermo.nw



============================== echo of input deck ==============================
echo
start h2o-dat

memory heap 100 mb stack 500 mb global 1024 mb

geometry
  #load ../xyz/h2o.xyz
  load h2o.xyz
end

basis "cc-pvdz" spherical
  * library cc-pvdz
end
basis "cc-pvtz" spherical
  * library cc-pvtz
end
basis "cc-pvqz" spherical
  * library cc-pvqz
end
basis "cc-pv5z" spherical
  * library cc-pv5z
end
basis "cc-pv6z" spherical
  * library cc-pv6z
end

dft
  direct
  # select PBE functional following https://doi.org/10.1002/aic.15517
  xc xpbe96 cpbe96
  convergence energy 1e-8 density 1e-7 gradient 1e-6
end

set int:txs:limxmem              50000000

set "ao basis" "cc-pvdz"
task dft optimize
task dft frequencies
vib
  reuse
  temp 9 198.15 298.15 398.15 498.15 598.15 698.15 798.15 898.15 998.15
end
task dft frequencies

set "ao basis" "cc-pvtz"
task dft optimize
task dft frequencies
vib
  reuse
  temp 9 198.15 298.15 398.15 498.15 598.15 698.15 798.15 898.15 998.15
end
task dft frequencies

set "ao basis" "cc-pvqz"
task dft optimize
task dft frequencies
vib
  reuse
  temp 9 198.15 298.15 398.15 498.15 598.15 698.15 798.15 898.15 998.15
end
task dft frequencies

#set "ao basis" "cc-pv5z"
#task dft optimize

#set "ao basis" "cc-pv6z"
#task dft optimize
================================================================================


                                         
                                         


             Northwest Computational Chemistry Package (NWChem) 7.0.1
             --------------------------------------------------------


                    Environmental Molecular Sciences Laboratory
                       Pacific Northwest National Laboratory
                                Richland, WA 99352

                              Copyright (c) 1994-2020
                       Pacific Northwest National Laboratory
                            Battelle Memorial Institute

             NWChem is an open-source computational chemistry package
                        distributed under the terms of the
                      Educational Community License (ECL) 2.0
             A copy of the license is included with this distribution
                              in the LICENSE.TXT file

                                  ACKNOWLEDGMENT
                                  --------------

            This software and its documentation were developed at the
            EMSL at Pacific Northwest National Laboratory, a multiprogram
            national laboratory, operated for the U.S. Department of Energy
            by Battelle under Contract Number DE-AC05-76RL01830. Support
            for this work was provided by the Department of Energy Office
            of Biological and Environmental Research, Office of Basic
            Energy Sciences, and the Office of Advanced Scientific Computing.


           Job information
           ---------------

    hostname        = node003
    program         = /home/hvandam/nwchem-1-srp-hpc/bin/LINUX64/nwchem
    date            = Mon Oct 17 14:33:47 2022

    compiled        = Fri_Jul_08_12:50:28_2022
    source          = /home/hvandam/nwchem-1-srp-hpc
    nwchem branch   = 7.0.0
    nwchem revision = nwchem_on_git-4025-gba861c8c44
    ga revision     = 5.8.1
    use scalapack   = F
    input           = /home/hvandam/nwchem-1-srp-hpc/QA/tests/ZSM-5/nwc/h2o-dft-pbe-thermo.nw
    prefix          = h2o-dat.
    data base       = ./h2o-dat.db
    status          = startup
    nproc           =       16
    time left       =     -1s



           Memory information
           ------------------

    heap     =   13107196 doubles =    100.0 Mbytes
    stack    =   65536001 doubles =    500.0 Mbytes
    global   =  134217728 doubles =   1024.0 Mbytes (distinct from heap & stack)
    total    =  212860925 doubles =   1624.0 Mbytes
    verify   = yes
    hardfail = no 


           Directory information
           ---------------------

  0 permanent = .
  0 scratch   = .




                                NWChem Input Module
                                -------------------



 Scaling coordinates for geometry "geometry" by  1.889725989
 (inverse scale =  0.529177249)

 C2V symmetry detected

          ------
          auto-z
          ------
  no constraints, skipping    0.0000000000000000     
  no constraints, skipping    0.0000000000000000     


                             Geometry "geometry" -> ""
                             -------------------------

 Output coordinates in angstroms (scale by  1.889725989 to convert to a.u.)

  No.       Tag          Charge          X              Y              Z
 ---- ---------------- ---------- -------------- -------------- --------------
    1 O                    8.0000     0.00000000     0.00000000    -0.11934458
    2 H                    1.0000    -0.76346550     0.00000000     0.47737833
    3 H                    1.0000     0.76346550     0.00000000     0.47737833

      Atomic Mass 
      ----------- 

      O                 15.994910
      H                  1.007825


 Effective nuclear repulsion energy (a.u.)       9.0842823178

            Nuclear Dipole moment (a.u.) 
            ----------------------------
        X                 Y               Z
 ---------------- ---------------- ----------------
     0.0000000000     0.0000000000     0.0000000000

      Symmetry information
      --------------------

 Group name             C2v       
 Group number             16
 Group order               4
 No. of unique centers     2

      Symmetry unique atoms

     1    2



                                Z-matrix (autoz)
                                -------- 

 Units are Angstrom for bonds and degrees for angles

      Type          Name      I     J     K     L     M      Value
      ----------- --------  ----- ----- ----- ----- ----- ----------
    1 Stretch                  1     2                       0.96900
    2 Stretch                  1     3                       0.96900
    3 Bend                     2     1     3               103.97779


            XYZ format geometry
            -------------------
     3
 geometry
 O                     0.00000000     0.00000000    -0.11934458
 H                    -0.76346550     0.00000000     0.47737833
 H                     0.76346550     0.00000000     0.47737833

 ==============================================================================
                                internuclear distances
 ------------------------------------------------------------------------------
       center one      |      center two      | atomic units |  angstroms
 ------------------------------------------------------------------------------
    2 H                |   1 O                |     1.83114  |     0.96900
    3 H                |   1 O                |     1.83114  |     0.96900
 ------------------------------------------------------------------------------
                         number of included internuclear distances:          2
 ==============================================================================



 ==============================================================================
                                 internuclear angles
 ------------------------------------------------------------------------------
        center 1       |       center 2       |       center 3       |  degrees
 ------------------------------------------------------------------------------
    2 H                |   1 O                |   3 H                |   103.98
 ------------------------------------------------------------------------------
                            number of included internuclear angles:          1
 ==============================================================================





 Summary of "cc-pvdz" -> "" (spherical)
 ------------------------------------------------------------------------------
       Tag                 Description            Shells   Functions and Types
 ---------------- ------------------------------  ------  ---------------------
 *                          cc-pvdz                   on all atoms 




 Summary of "cc-pvtz" -> "" (spherical)
 ------------------------------------------------------------------------------
       Tag                 Description            Shells   Functions and Types
 ---------------- ------------------------------  ------  ---------------------
 *                          cc-pvtz                   on all atoms 




 Summary of "cc-pvqz" -> "" (spherical)
 ------------------------------------------------------------------------------
       Tag                 Description            Shells   Functions and Types
 ---------------- ------------------------------  ------  ---------------------
 *                          cc-pvqz                   on all atoms 




 Summary of "cc-pv5z" -> "" (spherical)
 ------------------------------------------------------------------------------
       Tag                 Description            Shells   Functions and Types
 ---------------- ------------------------------  ------  ---------------------
 *                          cc-pv5z                   on all atoms 




 Summary of "cc-pv6z" -> "" (spherical)
 ------------------------------------------------------------------------------
       Tag                 Description            Shells   Functions and Types
 ---------------- ------------------------------  ------  ---------------------
 *                          cc-pv6z                   on all atoms 


  pbe96 is a nonlocal functional; adding pw91lda local functional. 


                           NWChem Geometry Optimization
                           ----------------------------


  no constraints, skipping    0.0000000000000000     
 maximum gradient threshold         (gmax) =   0.000450
 rms gradient threshold             (grms) =   0.000300
 maximum cartesian step threshold   (xmax) =   0.001800
 rms cartesian step threshold       (xrms) =   0.001200
 fixed trust radius                (trust) =   0.300000
 maximum step size to saddle      (sadstp) =   0.100000
 energy precision                  (eprec) =   5.0D-06
 maximum number of steps          (nptopt) =   40
 initial hessian option           (inhess) =    0
 line search option               (linopt) =    1
 hessian update option            (modupd) =    1
 saddle point option              (modsad) =    0
 initial eigen-mode to follow     (moddir) =    0
 initial variable to follow       (vardir) =    0
 follow first negative mode     (firstneg) =    T
 apply conjugacy                    (opcg) =    F
 source of zmatrix                         =   autoz   


          -------------------
          Energy Minimization
          -------------------


 Names of Z-matrix variables 
    1              2              3         

 Variables with the same non-blank name are constrained to be equal


 Using diagonal initial Hessian 
 Scaling for Hessian diagonals: bonds = 1.00  angles = 0.25  torsions = 0.10

          --------
          Step   0
          --------


                         Geometry "geometry" -> "geometry"
                         ---------------------------------

 Output coordinates in angstroms (scale by  1.889725989 to convert to a.u.)

  No.       Tag          Charge          X              Y              Z
 ---- ---------------- ---------- -------------- -------------- --------------
    1 O                    8.0000     0.00000000     0.00000000    -0.11934458
    2 H                    1.0000    -0.76346550     0.00000000     0.47737833
    3 H                    1.0000     0.76346550     0.00000000     0.47737833

      Atomic Mass 
      ----------- 

      O                 15.994910
      H                  1.007825


 Effective nuclear repulsion energy (a.u.)       9.0842823178

            Nuclear Dipole moment (a.u.) 
            ----------------------------
        X                 Y               Z
 ---------------- ---------------- ----------------
     0.0000000000     0.0000000000     0.0000000000

      Symmetry information
      --------------------

 Group name             C2v       
 Group number             16
 Group order               4
 No. of unique centers     2

      Symmetry unique atoms

     1    2


                                 NWChem DFT Module
                                 -----------------


                      Basis "ao basis" -> "cc-pvdz" (spherical)
                      -----
  O (Oxygen)
  ----------
            Exponent  Coefficients 
       -------------- ---------------------------------------------------------
  1 S  1.17200000E+04  0.000710
  1 S  1.75900000E+03  0.005470
  1 S  4.00800000E+02  0.027837
  1 S  1.13700000E+02  0.104800
  1 S  3.70300000E+01  0.283062
  1 S  1.32700000E+01  0.448719
  1 S  5.02500000E+00  0.270952
  1 S  1.01300000E+00  0.015458

  2 S  1.17200000E+04 -0.000160
  2 S  1.75900000E+03 -0.001263
  2 S  4.00800000E+02 -0.006267
  2 S  1.13700000E+02 -0.025716
  2 S  3.70300000E+01 -0.070924
  2 S  1.32700000E+01 -0.165411
  2 S  5.02500000E+00 -0.116955
  2 S  1.01300000E+00  0.557368

  3 S  3.02300000E-01  1.000000

  4 P  1.77000000E+01  0.043018
  4 P  3.85400000E+00  0.228913
  4 P  1.04600000E+00  0.508728

  5 P  2.75300000E-01  1.000000

  6 D  1.18500000E+00  1.000000

  H (Hydrogen)
  ------------
            Exponent  Coefficients 
       -------------- ---------------------------------------------------------
  1 S  1.30100000E+01  0.019685
  1 S  1.96200000E+00  0.137977
  1 S  4.44600000E-01  0.478148

  2 S  1.22000000E-01  1.000000

  3 P  7.27000000E-01  1.000000



 Summary of "ao basis" -> "cc-pvdz" (spherical)
 ------------------------------------------------------------------------------
       Tag                 Description            Shells   Functions and Types
 ---------------- ------------------------------  ------  ---------------------
 O                          cc-pvdz                  6       14   3s2p1d
 H                          cc-pvdz                  3        5   2s1p




 Summary of "ao basis" -> "cc-pvdz" (spherical)
 ------------------------------------------------------------------------------
       Tag                 Description            Shells   Functions and Types
 ---------------- ------------------------------  ------  ---------------------
 O                          cc-pvdz                  6       14   3s2p1d
 H                          cc-pvdz                  3        5   2s1p


      Symmetry analysis of basis
      --------------------------

        a1         11
        a2          2
        b1          7
        b2          4

  texas integral default override: limxmem =             50000000
  Caching 1-el integrals 
  itol2e modified to match energy
  convergence criterion.
  tol_rho modified to match energy
  convergence criterion.

            General Information
            -------------------
          SCF calculation type: DFT
          Wavefunction type:  closed shell.
          No. of atoms     :     3
          No. of electrons :    10
           Alpha electrons :     5
            Beta electrons :     5
          Charge           :     0
          Spin multiplicity:     1
          Use of symmetry is: on ; symmetry adaption is: on 
          Maximum number of iterations:  50
          This is a Direct SCF calculation.
          AO basis - number of functions:    24
                     number of shells:    12
          Convergence on energy requested:  1.00D-08
          Convergence on density requested:  1.00D-07
          Convergence on gradient requested:  1.00D-06

              XC Information
              --------------
          PerdewBurkeErnzerhof Exchange Functional  1.000          
            Perdew 1991 LDA Correlation Functional  1.000 local    
           PerdewBurkeErnz. Correlation Functional  1.000 non-local

             Grid Information
             ----------------
          Grid used for XC integration:  medium    
          Radial quadrature: Mura-Knowles        
          Angular quadrature: Lebedev. 
          Tag              B.-S. Rad. Rad. Pts. Rad. Cut. Ang. Pts.
          ---              ---------- --------- --------- ---------
          O                   0.60       49           5.0       434
          H                   0.35       45           7.0       434
          Grid pruning is: on 
          Number of quadrature shells:    94
          Spatial weights used:  Erf1

          Convergence Information
          -----------------------
          Convergence aids based upon iterative change in 
          total energy or number of iterations. 
          Levelshifting, if invoked, occurs when the 
          HOMO/LUMO gap drops below (HL_TOL):  1.00D-02
          DIIS, if invoked, will attempt to extrapolate 
          using up to (NFOCK): 10 stored Fock matrices.

                    Damping( 0%)  Levelshifting(0.5)       DIIS
                  --------------- ------------------- ---------------
          dE  on:    start            ASAP                start   
          dE off:    2 iters         50 iters            50 iters 


      Screening Tolerance Information
      -------------------------------
          Density screening/tol_rho:  1.00D-11
          AO Gaussian exp screening on grid/accAOfunc:  18
          CD Gaussian exp screening on grid/accCDfunc:  20
          XC Gaussian exp screening on grid/accXCfunc:  20
          Schwarz screening/accCoul:  1.00D-09


      Superposition of Atomic Density Guess
      -------------------------------------

 Sum of atomic energies:         -75.76222910

      Non-variational initial energy
      ------------------------------

 Total energy =     -75.903643
 1-e energy   =    -121.596856
 2-e energy   =      36.608931
 HOMO         =      -0.465742
 LUMO         =       0.088266


      Symmetry analysis of molecular orbitals - initial
      -------------------------------------------------

  Numbering of irreducible representations: 

     1 a1          2 a2          3 b1          4 b2      

  Orbital symmetries:

     1 a1          2 a1          3 b1          4 a1          5 b2      
     6 a1          7 b1          8 b1          9 a1         10 a1      
    11 b2         12 b1         13 a1         14 a2         15 b2      

   Time after variat. SCF:      0.7
   Time prior to 1st pass:      0.7

 Grid_pts file          = ./h2o-dat.gridpts.00
 Record size in doubles =  12289        No. of grid_pts per rec  =   3070
 Max. records in memory =      2        Max. recs in file   =    114822


           Memory utilization after 1st SCF pass: 
           Heap Space remaining (MW):       13.08            13080804
          Stack Space remaining (MW):       65.54            65535732

   convergence    iter        energy       DeltaE   RMS-Dens  Diis-err    time
 ---------------- ----- ----------------- --------- --------- ---------  ------
 d= 0,ls=0.0,diis     1    -76.2949622965 -8.54D+01  2.94D-02  3.93D-01     0.7
 d= 0,ls=0.0,diis     2    -76.2607863105  3.42D-02  1.79D-02  7.83D-01     0.8
 d= 0,ls=0.0,diis     3    -76.3325452623 -7.18D-02  2.21D-03  1.61D-02     0.8
 d= 0,ls=0.0,diis     4    -76.3339664236 -1.42D-03  2.06D-04  1.73D-04     0.8
 d= 0,ls=0.0,diis     5    -76.3339817721 -1.53D-05  1.65D-05  1.58D-07     0.9
 d= 0,ls=0.0,diis     6    -76.3339817962 -2.41D-08  2.11D-06  9.19D-09     0.9
 d= 0,ls=0.0,diis     7    -76.3339817971 -9.58D-10  5.72D-08  7.33D-12     0.9


         Total DFT energy =      -76.333981797120
      One electron energy =     -122.980875983840
           Coulomb energy =       46.831737836184
    Exchange-Corr. energy =       -9.269125967227
 Nuclear repulsion energy =        9.084282317764

 Numeric. integr. density =       10.000000480868

     Total iterative time =      0.3s



                  Occupations of the irreducible representations
                  ----------------------------------------------

                     irrep           alpha         beta
                     --------     --------     --------
                     a1                3.0          3.0
                     a2                0.0          0.0
                     b1                1.0          1.0
                     b2                1.0          1.0


                       DFT Final Molecular Orbital Analysis
                       ------------------------------------

 Vector    1  Occ=2.000000D+00  E=-1.874085D+01  Symmetry=a1
              MO Center=  7.4D-19,  8.2D-22, -1.2D-01, r^2= 1.5D-02
   Bfn.  Coefficient  Atom+Function         Bfn.  Coefficient  Atom+Function  
  ----- ------------  ---------------      ----- ------------  ---------------
     1      1.003563  1 O  s          

 Vector    2  Occ=2.000000D+00  E=-8.987176D-01  Symmetry=a1
              MO Center=  2.5D-16,  2.2D-16,  9.3D-02, r^2= 5.0D-01
   Bfn.  Coefficient  Atom+Function         Bfn.  Coefficient  Atom+Function  
  ----- ------------  ---------------      ----- ------------  ---------------
     2      0.439545  1 O  s                  3      0.351407  1 O  s          
    15      0.204655  2 H  s                 20      0.204655  3 H  s          
     6      0.122810  1 O  pz                17      0.037031  2 H  px         
    22     -0.037031  3 H  px         

 Vector    3  Occ=2.000000D+00  E=-4.528061D-01  Symmetry=b1
              MO Center= -1.9D-16,  5.7D-32,  1.2D-01, r^2= 7.9D-01
   Bfn.  Coefficient  Atom+Function         Bfn.  Coefficient  Atom+Function  
  ----- ------------  ---------------      ----- ------------  ---------------
     4      0.503814  1 O  px                15     -0.330471  2 H  s          
    20      0.330471  3 H  s                  7      0.196258  1 O  px         
    16     -0.113465  2 H  s                 21      0.113465  3 H  s          
    19      0.028054  2 H  pz                24     -0.028054  3 H  pz         

 Vector    4  Occ=2.000000D+00  E=-3.044621D-01  Symmetry=a1
              MO Center= -2.3D-17, -4.7D-17, -1.9D-01, r^2= 6.8D-01
   Bfn.  Coefficient  Atom+Function         Bfn.  Coefficient  Atom+Function  
  ----- ------------  ---------------      ----- ------------  ---------------
     6      0.541996  1 O  pz                 3     -0.387544  1 O  s          
     9      0.349427  1 O  pz                15      0.201700  2 H  s          
    20      0.201700  3 H  s                  2     -0.171381  1 O  s          
    16      0.052468  2 H  s                 21      0.052468  3 H  s          

 Vector    5  Occ=2.000000D+00  E=-2.241662D-01  Symmetry=b2
              MO Center= -4.5D-17, -8.2D-17, -9.3D-02, r^2= 6.0D-01
   Bfn.  Coefficient  Atom+Function         Bfn.  Coefficient  Atom+Function  
  ----- ------------  ---------------      ----- ------------  ---------------
     5      0.634264  1 O  py                 8      0.490478  1 O  py         
    18      0.033948  2 H  py                23      0.033948  3 H  py         

 Vector    6  Occ=0.000000D+00  E= 3.110534D-02  Symmetry=a1
              MO Center= -1.2D-17, -1.3D-16,  5.8D-01, r^2= 2.7D+00
   Bfn.  Coefficient  Atom+Function         Bfn.  Coefficient  Atom+Function  
  ----- ------------  ---------------      ----- ------------  ---------------
     3      0.867159  1 O  s                 16     -0.743417  2 H  s          
    21     -0.743417  3 H  s                  9      0.310328  1 O  pz         
     6      0.265858  1 O  pz                 2      0.143537  1 O  s          
    15     -0.129379  2 H  s                 20     -0.129379  3 H  s          

 Vector    7  Occ=0.000000D+00  E= 1.061687D-01  Symmetry=b1
              MO Center=  5.3D-16, -1.6D-31,  5.6D-01, r^2= 3.1D+00
   Bfn.  Coefficient  Atom+Function         Bfn.  Coefficient  Atom+Function  
  ----- ------------  ---------------      ----- ------------  ---------------
    16      1.252125  2 H  s                 21     -1.252125  3 H  s          
     7      0.599276  1 O  px                 4      0.394902  1 O  px         
    15      0.133944  2 H  s                 20     -0.133944  3 H  s          

 Vector    8  Occ=0.000000D+00  E= 5.115129D-01  Symmetry=b1
              MO Center=  3.8D-15, -1.3D-16,  3.0D-01, r^2= 2.0D+00
   Bfn.  Coefficient  Atom+Function         Bfn.  Coefficient  Atom+Function  
  ----- ------------  ---------------      ----- ------------  ---------------
    15      0.934232  2 H  s                 20     -0.934232  3 H  s          
    16     -0.917818  2 H  s                 21      0.917818  3 H  s          
     4      0.291622  1 O  px                 7      0.286047  1 O  px         
    19      0.129630  2 H  pz                24     -0.129630  3 H  pz         
    13      0.104890  1 O  d  1              17     -0.054469  2 H  px         

 Vector    9  Occ=0.000000D+00  E= 5.621398D-01  Symmetry=a1
              MO Center= -4.5D-15, -2.3D-17,  4.8D-01, r^2= 1.8D+00
   Bfn.  Coefficient  Atom+Function         Bfn.  Coefficient  Atom+Function  
  ----- ------------  ---------------      ----- ------------  ---------------
    15      0.814225  2 H  s                 20      0.814225  3 H  s          
    16     -0.633193  2 H  s                 21     -0.633193  3 H  s          
     6     -0.380809  1 O  pz                 3      0.342574  1 O  s          
    17     -0.238806  2 H  px                22      0.238806  3 H  px         
     2     -0.237531  1 O  s                 14      0.095072  1 O  d  2       

 Vector   10  Occ=0.000000D+00  E= 8.542070D-01  Symmetry=a1
              MO Center=  1.2D-15, -3.3D-17, -1.3D-01, r^2= 1.2D+00
   Bfn.  Coefficient  Atom+Function         Bfn.  Coefficient  Atom+Function  
  ----- ------------  ---------------      ----- ------------  ---------------
     9      1.223176  1 O  pz                 6     -0.752537  1 O  pz         
     3      0.607859  1 O  s                 15     -0.522533  2 H  s          
    20     -0.522533  3 H  s                 19      0.239701  2 H  pz         
    24      0.239701  3 H  pz                 2      0.149918  1 O  s          
    16     -0.083704  2 H  s                 21     -0.083704  3 H  s          

 Vector   11  Occ=0.000000D+00  E= 8.695151D-01  Symmetry=b2
              MO Center=  5.5D-16,  1.2D-16, -9.5D-02, r^2= 1.1D+00
   Bfn.  Coefficient  Atom+Function         Bfn.  Coefficient  Atom+Function  
  ----- ------------  ---------------      ----- ------------  ---------------
     8     -0.996144  1 O  py                 5      0.965500  1 O  py         
    18     -0.044255  2 H  py                23     -0.044255  3 H  py         

 Vector   12  Occ=0.000000D+00  E= 9.495087D-01  Symmetry=b1
              MO Center=  9.4D-17,  1.2D-16, -1.4D-01, r^2= 1.8D+00
   Bfn.  Coefficient  Atom+Function         Bfn.  Coefficient  Atom+Function  
  ----- ------------  ---------------      ----- ------------  ---------------
     7      1.756824  1 O  px                16      0.836667  2 H  s          
    21     -0.836667  3 H  s                  4     -0.750798  1 O  px         
    15      0.369230  2 H  s                 20     -0.369230  3 H  s          
    17      0.255438  2 H  px                22      0.255438  3 H  px         
    19     -0.117061  2 H  pz                24      0.117061  3 H  pz         

 Vector   13  Occ=0.000000D+00  E= 1.151160D+00  Symmetry=a1
              MO Center=  8.9D-16,  7.8D-18,  3.7D-02, r^2= 1.4D+00
   Bfn.  Coefficient  Atom+Function         Bfn.  Coefficient  Atom+Function  
  ----- ------------  ---------------      ----- ------------  ---------------
     9      0.746552  1 O  pz                 2      0.557026  1 O  s          
     3     -0.520171  1 O  s                 19     -0.517094  2 H  pz         
    24     -0.517094  3 H  pz                17     -0.345666  2 H  px         
    22      0.345666  3 H  px                15     -0.333249  2 H  s          
    20     -0.333249  3 H  s                 16      0.215415  2 H  s          

 Vector   14  Occ=0.000000D+00  E= 1.178133D+00  Symmetry=a2
              MO Center=  7.7D-15, -1.9D-16,  4.3D-01, r^2= 1.1D+00
   Bfn.  Coefficient  Atom+Function         Bfn.  Coefficient  Atom+Function  
  ----- ------------  ---------------      ----- ------------  ---------------
    18      0.681174  2 H  py                23     -0.681174  3 H  py         
    10     -0.144199  1 O  d -2       

 Vector   15  Occ=0.000000D+00  E= 1.369044D+00  Symmetry=b2
              MO Center= -9.4D-15, -1.5D-17,  2.7D-01, r^2= 1.2D+00
   Bfn.  Coefficient  Atom+Function         Bfn.  Coefficient  Atom+Function  
  ----- ------------  ---------------      ----- ------------  ---------------
    18      0.757444  2 H  py                23      0.757444  3 H  py         
     8     -0.668790  1 O  py                11      0.175576  1 O  d -1       
     5      0.027858  1 O  py         

 Vector   16  Occ=0.000000D+00  E= 1.537964D+00  Symmetry=a1
              MO Center= -5.0D-16, -1.7D-16,  8.5D-02, r^2= 1.2D+00
   Bfn.  Coefficient  Atom+Function         Bfn.  Coefficient  Atom+Function  
  ----- ------------  ---------------      ----- ------------  ---------------
     3      2.981885  1 O  s                  2     -1.611036  1 O  s          
     9      0.994917  1 O  pz                15     -0.787025  2 H  s          
    20     -0.787025  3 H  s                  1     -0.730190  1 O  s          
    16     -0.400970  2 H  s                 21     -0.400970  3 H  s          
    17     -0.347271  2 H  px                22      0.347271  3 H  px         

 Vector   17  Occ=0.000000D+00  E= 1.605945D+00  Symmetry=b1
              MO Center= -2.4D-15,  1.5D-16,  4.0D-01, r^2= 1.3D+00
   Bfn.  Coefficient  Atom+Function         Bfn.  Coefficient  Atom+Function  
  ----- ------------  ---------------      ----- ------------  ---------------
     7      0.929204  1 O  px                19     -0.703391  2 H  pz         
    24      0.703391  3 H  pz                17     -0.449047  2 H  px         
    22     -0.449047  3 H  px                15      0.385015  2 H  s          
    20     -0.385015  3 H  s                 16      0.113569  2 H  s          
    21     -0.113569  3 H  s                 13      0.034561  1 O  d  1       

 Vector   18  Occ=0.000000D+00  E= 2.021827D+00  Symmetry=b1
              MO Center=  2.2D-14, -2.3D-17,  3.9D-01, r^2= 1.2D+00
   Bfn.  Coefficient  Atom+Function         Bfn.  Coefficient  Atom+Function  
  ----- ------------  ---------------      ----- ------------  ---------------
     4      0.755377  1 O  px                17      0.737450  2 H  px         
    22      0.737450  3 H  px                19     -0.546616  2 H  pz         
    24      0.546616  3 H  pz                16      0.394425  2 H  s          
    21     -0.394425  3 H  s                 15      0.249719  2 H  s          
    20     -0.249719  3 H  s                  7      0.199865  1 O  px         

 Vector   19  Occ=0.000000D+00  E= 2.059133D+00  Symmetry=a1
              MO Center= -2.3D-14,  2.5D-17,  3.8D-01, r^2= 1.0D+00
   Bfn.  Coefficient  Atom+Function         Bfn.  Coefficient  Atom+Function  
  ----- ------------  ---------------      ----- ------------  ---------------
     3      0.922103  1 O  s                 17     -0.755377  2 H  px         
    22      0.755377  3 H  px                 2      0.622588  1 O  s          
     6      0.619062  1 O  pz                19      0.549999  2 H  pz         
    24      0.549999  3 H  pz                15     -0.465191  2 H  s          
    20     -0.465191  3 H  s                  9      0.234454  1 O  pz         

 Vector   20  Occ=0.000000D+00  E= 2.826760D+00  Symmetry=b2
              MO Center= -8.6D-15,  6.7D-17, -4.6D-02, r^2= 6.0D-01
   Bfn.  Coefficient  Atom+Function         Bfn.  Coefficient  Atom+Function  
  ----- ------------  ---------------      ----- ------------  ---------------
    11      1.037702  1 O  d -1              18     -0.400738  2 H  py         
    23     -0.400738  3 H  py                 8      0.316415  1 O  py         

 Vector   21  Occ=0.000000D+00  E= 2.864395D+00  Symmetry=a2
              MO Center=  9.9D-15,  7.3D-17, -5.1D-02, r^2= 5.9D-01
   Bfn.  Coefficient  Atom+Function         Bfn.  Coefficient  Atom+Function  
  ----- ------------  ---------------      ----- ------------  ---------------
    10      1.059904  1 O  d -2              18      0.370470  2 H  py         
    23     -0.370470  3 H  py         

 Vector   22  Occ=0.000000D+00  E= 3.029827D+00  Symmetry=a1
              MO Center=  1.1D-15,  8.7D-18, -4.5D-02, r^2= 6.6D-01
   Bfn.  Coefficient  Atom+Function         Bfn.  Coefficient  Atom+Function  
  ----- ------------  ---------------      ----- ------------  ---------------
    12      1.069472  1 O  d  0               9      0.510817  1 O  pz         
     3      0.476311  1 O  s                 17     -0.332545  2 H  px         
    19     -0.332943  2 H  pz                22      0.332545  3 H  px         
    24     -0.332943  3 H  pz                15     -0.259734  2 H  s          
    20     -0.259734  3 H  s                 14     -0.223238  1 O  d  2       

 Vector   23  Occ=0.000000D+00  E= 3.363210D+00  Symmetry=a1
              MO Center= -5.0D-15,  5.0D-17, -7.2D-03, r^2= 7.9D-01
   Bfn.  Coefficient  Atom+Function         Bfn.  Coefficient  Atom+Function  
  ----- ------------  ---------------      ----- ------------  ---------------
     3      2.307661  1 O  s                 15     -1.213398  2 H  s          
    20     -1.213398  3 H  s                 14      1.144581  1 O  d  2       
     9      0.963292  1 O  pz                17     -0.637822  2 H  px         
    22      0.637822  3 H  px                19      0.486481  2 H  pz         
    24      0.486481  3 H  pz                 6      0.374707  1 O  pz         

 Vector   24  Occ=0.000000D+00  E= 3.635877D+00  Symmetry=b1
              MO Center=  7.5D-15, -1.8D-18, -8.1D-02, r^2= 8.1D-01
   Bfn.  Coefficient  Atom+Function         Bfn.  Coefficient  Atom+Function  
  ----- ------------  ---------------      ----- ------------  ---------------
    13      1.321194  1 O  d  1               7     -1.166785  1 O  px         
    15     -1.050346  2 H  s                 20      1.050346  3 H  s          
    17     -0.608228  2 H  px                22     -0.608228  3 H  px         
    19      0.507567  2 H  pz                24     -0.507567  3 H  pz         
     4     -0.430951  1 O  px                16     -0.313948  2 H  s          


 center of mass
 --------------
 x =   0.00000000 y =   0.00000000 z =  -0.09932853

 moments of inertia (a.u.)
 ------------------
           2.276212509685           0.000000000000           0.000000000000
           0.000000000000           6.471788902429           0.000000000000
           0.000000000000           0.000000000000           4.195576392744

     Multipole analysis of the density
     ---------------------------------

     L   x y z        total         alpha         beta         nuclear
     -   - - -        -----         -----         ----         -------
     0   0 0 0     -0.000000     -5.000000     -5.000000     10.000000

     1   1 0 0     -0.000000     -0.000000     -0.000000      0.000000
     1   0 1 0     -0.000000     -0.000000     -0.000000      0.000000
     1   0 0 1      0.737172      0.368586      0.368586      0.000000

     2   2 0 0     -3.213404     -3.688202     -3.688202      4.163001
     2   1 1 0     -0.000000     -0.000000     -0.000000      0.000000
     2   1 0 1      0.000000      0.000000      0.000000      0.000000
     2   0 2 0     -5.213501     -2.606751     -2.606751      0.000000
     2   0 1 1      0.000000      0.000000      0.000000      0.000000
     2   0 0 2     -4.407661     -3.221093     -3.221093      2.034525


            General Information
            -------------------
          SCF calculation type: DFT
          Wavefunction type:  closed shell.
          No. of atoms     :     3
          No. of electrons :    10
           Alpha electrons :     5
            Beta electrons :     5
          Charge           :     0
          Spin multiplicity:     1
          Use of symmetry is: on ; symmetry adaption is: on 
          Maximum number of iterations:  50
          This is a Direct SCF calculation.
          AO basis - number of functions:    24
                     number of shells:    12
          Convergence on energy requested:  1.00D-08
          Convergence on density requested:  1.00D-07
          Convergence on gradient requested:  1.00D-06

              XC Information
              --------------
          PerdewBurkeErnzerhof Exchange Functional  1.000          
            Perdew 1991 LDA Correlation Functional  1.000 local    
           PerdewBurkeErnz. Correlation Functional  1.000 non-local

             Grid Information
             ----------------
          Grid used for XC integration:  medium    
          Radial quadrature: Mura-Knowles        
          Angular quadrature: Lebedev. 
          Tag              B.-S. Rad. Rad. Pts. Rad. Cut. Ang. Pts.
          ---              ---------- --------- --------- ---------
          O                   0.60       49           5.0       434
          H                   0.35       45           7.0       434
          Grid pruning is: on 
          Number of quadrature shells:    94
          Spatial weights used:  Erf1

          Convergence Information
          -----------------------
          Convergence aids based upon iterative change in 
          total energy or number of iterations. 
          Levelshifting, if invoked, occurs when the 
          HOMO/LUMO gap drops below (HL_TOL):  1.00D-02
          DIIS, if invoked, will attempt to extrapolate 
          using up to (NFOCK): 10 stored Fock matrices.

                    Damping( 0%)  Levelshifting(0.5)       DIIS
                  --------------- ------------------- ---------------
          dE  on:    start            ASAP                start   
          dE off:    2 iters         50 iters            50 iters 


      Screening Tolerance Information
      -------------------------------
          Density screening/tol_rho:  1.00D-11
          AO Gaussian exp screening on grid/accAOfunc:  18
          CD Gaussian exp screening on grid/accCDfunc:  20
          XC Gaussian exp screening on grid/accXCfunc:  20
          Schwarz screening/accCoul:  1.00D-09

  texas integral default override: limxmem =             50000000
  texas integral default override: limxmem =             50000000


                            NWChem DFT Gradient Module
                            --------------------------



  charge          =   0.00
  wavefunction    = closed shell

  Using symmetry
  texas integral default override: limxmem =             50000000
  texas integral default override: limxmem =             50000000


                         DFT ENERGY GRADIENTS

    atom               coordinates                        gradient
                 x          y          z           x          y          z
   1 O       0.000000   0.000000  -0.225529    0.000000   0.000000   0.012336
   2 H      -1.442741   0.000000   0.902114    0.003005   0.000000  -0.006168
   3 H       1.442741   0.000000   0.902114   -0.003005   0.000000  -0.006168

                 ----------------------------------------
                 |  Time  |  1-e(secs)   |  2-e(secs)   |
                 ----------------------------------------
                 |  CPU   |       0.00   |       0.02   |
                 ----------------------------------------
                 |  WALL  |       0.00   |       0.02   |
                 ----------------------------------------
  no constraints, skipping    0.0000000000000000     

@ Step       Energy      Delta E   Gmax     Grms     Xrms     Xmax   Walltime
@ ---- ---------------- -------- -------- -------- -------- -------- --------
@    0     -76.33398180  0.0D+00  0.00617  0.00531  0.00000  0.00000      1.0
                                                                    



                                Z-matrix (autoz)
                                -------- 

 Units are Angstrom for bonds and degrees for angles

      Type          Name      I     J     K     L     M      Value     Gradient
      ----------- --------  ----- ----- ----- ----- ----- ---------- ----------
    1 Stretch                  1     2                       0.96900   -0.00617
    2 Stretch                  1     3                       0.96900   -0.00617
    3 Bend                     2     1     3               103.97779    0.00292

  no constraints, skipping    0.0000000000000000     
  no constraints, skipping    0.0000000000000000     
  no constraints, skipping    0.0000000000000000     
  no constraints, skipping    0.0000000000000000     

                                 NWChem DFT Module
                                 -----------------




 Summary of "ao basis" -> "cc-pvdz" (spherical)
 ------------------------------------------------------------------------------
       Tag                 Description            Shells   Functions and Types
 ---------------- ------------------------------  ------  ---------------------
 O                          cc-pvdz                  6       14   3s2p1d
 H                          cc-pvdz                  3        5   2s1p


      Symmetry analysis of basis
      --------------------------

        a1         11
        a2          2
        b1          7
        b2          4

  texas integral default override: limxmem =             50000000
  Caching 1-el integrals 

            General Information
            -------------------
          SCF calculation type: DFT
          Wavefunction type:  closed shell.
          No. of atoms     :     3
          No. of electrons :    10
           Alpha electrons :     5
            Beta electrons :     5
          Charge           :     0
          Spin multiplicity:     1
          Use of symmetry is: on ; symmetry adaption is: on 
          Maximum number of iterations:  50
          This is a Direct SCF calculation.
          AO basis - number of functions:    24
                     number of shells:    12
          Convergence on energy requested:  1.00D-08
          Convergence on density requested:  1.00D-07
          Convergence on gradient requested:  1.00D-06

              XC Information
              --------------
          PerdewBurkeErnzerhof Exchange Functional  1.000          
            Perdew 1991 LDA Correlation Functional  1.000 local    
           PerdewBurkeErnz. Correlation Functional  1.000 non-local

             Grid Information
             ----------------
          Grid used for XC integration:  medium    
          Radial quadrature: Mura-Knowles        
          Angular quadrature: Lebedev. 
          Tag              B.-S. Rad. Rad. Pts. Rad. Cut. Ang. Pts.
          ---              ---------- --------- --------- ---------
          O                   0.60       49           5.0       434
          H                   0.35       45           7.0       434
          Grid pruning is: on 
          Number of quadrature shells:    94
          Spatial weights used:  Erf1

          Convergence Information
          -----------------------
          Convergence aids based upon iterative change in 
          total energy or number of iterations. 
          Levelshifting, if invoked, occurs when the 
          HOMO/LUMO gap drops below (HL_TOL):  1.00D-02
          DIIS, if invoked, will attempt to extrapolate 
          using up to (NFOCK): 10 stored Fock matrices.

                    Damping( 0%)  Levelshifting(0.5)       DIIS
                  --------------- ------------------- ---------------
          dE  on:    start            ASAP                start   
          dE off:    2 iters         50 iters            50 iters 


      Screening Tolerance Information
      -------------------------------
          Density screening/tol_rho:  1.00D-11
          AO Gaussian exp screening on grid/accAOfunc:  18
          CD Gaussian exp screening on grid/accCDfunc:  20
          XC Gaussian exp screening on grid/accXCfunc:  20
          Schwarz screening/accCoul:  1.00D-09


 Loading old vectors from job with title :




      Symmetry analysis of molecular orbitals - initial
      -------------------------------------------------

  Numbering of irreducible representations: 

     1 a1          2 a2          3 b1          4 b2      

  Orbital symmetries:

     1 a1          2 a1          3 b1          4 a1          5 b2      
     6 a1          7 b1          8 b1          9 a1         10 a1      
    11 b2         12 b1         13 a1         14 a2         15 b2      

   Time after variat. SCF:      1.1
   Time prior to 1st pass:      1.1

 Grid_pts file          = ./h2o-dat.gridpts.00
 Record size in doubles =  12289        No. of grid_pts per rec  =   3070
 Max. records in memory =      2        Max. recs in file   =    114822


           Memory utilization after 1st SCF pass: 
           Heap Space remaining (MW):       13.08            13080804
          Stack Space remaining (MW):       65.54            65535732

   convergence    iter        energy       DeltaE   RMS-Dens  Diis-err    time
 ---------------- ----- ----------------- --------- --------- ---------  ------
 d= 0,ls=0.0,diis     1    -76.3340632140 -8.53D+01  1.54D-03  6.29D-04     1.2
 d= 0,ls=0.0,diis     2    -76.3341581560 -9.49D-05  4.49D-04  1.92D-04     1.2
 d= 0,ls=0.0,diis     3    -76.3341608058 -2.65D-06  2.24D-04  1.67D-04     1.2
 d= 0,ls=0.0,diis     4    -76.3341756416 -1.48D-05  1.57D-05  7.36D-07     1.3
 d= 0,ls=0.0,diis     5    -76.3341757085 -6.69D-08  1.14D-06  3.11D-09     1.3
 d= 0,ls=0.0,diis     6    -76.3341757088 -2.92D-10  2.12D-08  6.48D-13     1.3


         Total DFT energy =      -76.334175708824
      One electron energy =     -122.829728644806
           Coulomb energy =       46.753252610608
    Exchange-Corr. energy =       -9.260708373728
 Nuclear repulsion energy =        9.003008699102

 Numeric. integr. density =       10.000000099821

     Total iterative time =      0.2s



                  Occupations of the irreducible representations
                  ----------------------------------------------

                     irrep           alpha         beta
                     --------     --------     --------
                     a1                3.0          3.0
                     a2                0.0          0.0
                     b1                1.0          1.0
                     b2                1.0          1.0


                       DFT Final Molecular Orbital Analysis
                       ------------------------------------

 Vector    1  Occ=2.000000D+00  E=-1.874319D+01  Symmetry=a1
              MO Center=  1.6D-19,  7.8D-22, -1.3D-01, r^2= 1.5D-02
   Bfn.  Coefficient  Atom+Function         Bfn.  Coefficient  Atom+Function  
  ----- ------------  ---------------      ----- ------------  ---------------
     1      1.003540  1 O  s          

 Vector    2  Occ=2.000000D+00  E=-8.965299D-01  Symmetry=a1
              MO Center=  1.3D-16, -4.5D-17,  8.4D-02, r^2= 5.0D-01
   Bfn.  Coefficient  Atom+Function         Bfn.  Coefficient  Atom+Function  
  ----- ------------  ---------------      ----- ------------  ---------------
     2      0.440299  1 O  s                  3      0.356277  1 O  s          
    15      0.202026  2 H  s                 20      0.202026  3 H  s          
     6      0.123413  1 O  pz                17      0.036138  2 H  px         
    22     -0.036138  3 H  px         

 Vector    3  Occ=2.000000D+00  E=-4.467971D-01  Symmetry=b1
              MO Center=  2.0D-16, -1.1D-16,  1.1D-01, r^2= 8.0D-01
   Bfn.  Coefficient  Atom+Function         Bfn.  Coefficient  Atom+Function  
  ----- ------------  ---------------      ----- ------------  ---------------
     4      0.503930  1 O  px                15     -0.327641  2 H  s          
    20      0.327641  3 H  s                  7      0.201806  1 O  px         
    16     -0.116709  2 H  s                 21      0.116709  3 H  s          
    19      0.028158  2 H  pz                24     -0.028158  3 H  pz         

 Vector    4  Occ=2.000000D+00  E=-3.078226D-01  Symmetry=a1
              MO Center=  9.0D-17, -2.0D-16, -2.0D-01, r^2= 6.8D-01
   Bfn.  Coefficient  Atom+Function         Bfn.  Coefficient  Atom+Function  
  ----- ------------  ---------------      ----- ------------  ---------------
     6      0.538498  1 O  pz                 3     -0.391340  1 O  s          
     9      0.344383  1 O  pz                15      0.205683  2 H  s          
    20      0.205683  3 H  s                  2     -0.173299  1 O  s          
    16      0.054688  2 H  s                 21      0.054688  3 H  s          

 Vector    5  Occ=2.000000D+00  E=-2.240297D-01  Symmetry=b2
              MO Center= -2.3D-16,  1.4D-16, -1.1D-01, r^2= 6.0D-01
   Bfn.  Coefficient  Atom+Function         Bfn.  Coefficient  Atom+Function  
  ----- ------------  ---------------      ----- ------------  ---------------
     5      0.634728  1 O  py                 8      0.490526  1 O  py         
    18      0.033859  2 H  py                23      0.033859  3 H  py         

 Vector    6  Occ=0.000000D+00  E= 2.832724D-02  Symmetry=a1
              MO Center= -5.7D-15, -1.2D-18,  5.8D-01, r^2= 2.6D+00
   Bfn.  Coefficient  Atom+Function         Bfn.  Coefficient  Atom+Function  
  ----- ------------  ---------------      ----- ------------  ---------------
     3      0.853118  1 O  s                 16     -0.736660  2 H  s          
    21     -0.736660  3 H  s                  9      0.317464  1 O  pz         
     6      0.273509  1 O  pz                 2      0.142444  1 O  s          
    15     -0.130442  2 H  s                 20     -0.130442  3 H  s          

 Vector    7  Occ=0.000000D+00  E= 1.031288D-01  Symmetry=b1
              MO Center=  5.8D-15, -6.5D-31,  5.5D-01, r^2= 3.0D+00
   Bfn.  Coefficient  Atom+Function         Bfn.  Coefficient  Atom+Function  
  ----- ------------  ---------------      ----- ------------  ---------------
    16      1.237098  2 H  s                 21     -1.237098  3 H  s          
     7      0.597519  1 O  px                 4      0.399534  1 O  px         
    15      0.142816  2 H  s                 20     -0.142816  3 H  s          

 Vector    8  Occ=0.000000D+00  E= 5.018752D-01  Symmetry=b1
              MO Center=  7.0D-15, -6.6D-17,  3.1D-01, r^2= 2.1D+00
   Bfn.  Coefficient  Atom+Function         Bfn.  Coefficient  Atom+Function  
  ----- ------------  ---------------      ----- ------------  ---------------
    16     -0.941867  2 H  s                 21      0.941867  3 H  s          
    15      0.932490  2 H  s                 20     -0.932490  3 H  s          
     4      0.283592  1 O  px                 7      0.271293  1 O  px         
    19      0.122718  2 H  pz                24     -0.122718  3 H  pz         
    13      0.103458  1 O  d  1              17     -0.051683  2 H  px         

 Vector    9  Occ=0.000000D+00  E= 5.610154D-01  Symmetry=a1
              MO Center= -7.6D-15, -6.6D-17,  4.8D-01, r^2= 1.8D+00
   Bfn.  Coefficient  Atom+Function         Bfn.  Coefficient  Atom+Function  
  ----- ------------  ---------------      ----- ------------  ---------------
    15      0.809723  2 H  s                 20      0.809723  3 H  s          
    16     -0.641768  2 H  s                 21     -0.641768  3 H  s          
     6     -0.395096  1 O  pz                 3      0.367666  1 O  s          
     2     -0.242080  1 O  s                 17     -0.233328  2 H  px         
    22      0.233328  3 H  px                14      0.092490  1 O  d  2       

 Vector   10  Occ=0.000000D+00  E= 8.565234D-01  Symmetry=a1
              MO Center=  4.6D-16,  4.2D-16, -1.4D-01, r^2= 1.2D+00
   Bfn.  Coefficient  Atom+Function         Bfn.  Coefficient  Atom+Function  
  ----- ------------  ---------------      ----- ------------  ---------------
     9      1.216052  1 O  pz                 6     -0.742527  1 O  pz         
     3      0.571364  1 O  s                 15     -0.528397  2 H  s          
    20     -0.528397  3 H  s                 19      0.247064  2 H  pz         
    24      0.247064  3 H  pz                 2      0.165300  1 O  s          
    16     -0.071416  2 H  s                 21     -0.071416  3 H  s          

 Vector   11  Occ=0.000000D+00  E= 8.685662D-01  Symmetry=b2
              MO Center=  3.0D-16, -3.1D-16, -1.0D-01, r^2= 1.1D+00
   Bfn.  Coefficient  Atom+Function         Bfn.  Coefficient  Atom+Function  
  ----- ------------  ---------------      ----- ------------  ---------------
     8     -0.989372  1 O  py                 5      0.964598  1 O  py         
    18     -0.052343  2 H  py                23     -0.052343  3 H  py         

 Vector   12  Occ=0.000000D+00  E= 9.503806D-01  Symmetry=b1
              MO Center= -3.1D-16,  6.2D-32, -1.5D-01, r^2= 1.8D+00
   Bfn.  Coefficient  Atom+Function         Bfn.  Coefficient  Atom+Function  
  ----- ------------  ---------------      ----- ------------  ---------------
     7      1.738963  1 O  px                16      0.827517  2 H  s          
    21     -0.827517  3 H  s                  4     -0.760490  1 O  px         
    15      0.355762  2 H  s                 20     -0.355762  3 H  s          
    17      0.248304  2 H  px                22      0.248304  3 H  px         
    19     -0.122336  2 H  pz                24      0.122336  3 H  pz         

 Vector   13  Occ=0.000000D+00  E= 1.136784D+00  Symmetry=a1
              MO Center=  4.2D-16, -6.1D-17,  3.0D-02, r^2= 1.4D+00
   Bfn.  Coefficient  Atom+Function         Bfn.  Coefficient  Atom+Function  
  ----- ------------  ---------------      ----- ------------  ---------------
     9      0.780044  1 O  pz                 2      0.518687  1 O  s          
    19     -0.497187  2 H  pz                24     -0.497187  3 H  pz         
     3     -0.421262  1 O  s                 17     -0.372345  2 H  px         
    22      0.372345  3 H  px                15     -0.358082  2 H  s          
    20     -0.358082  3 H  s                 16      0.197703  2 H  s          

 Vector   14  Occ=0.000000D+00  E= 1.181736D+00  Symmetry=a2
              MO Center= -1.9D-15,  5.7D-17,  4.3D-01, r^2= 1.0D+00
   Bfn.  Coefficient  Atom+Function         Bfn.  Coefficient  Atom+Function  
  ----- ------------  ---------------      ----- ------------  ---------------
    18      0.682095  2 H  py                23     -0.682095  3 H  py         
    10     -0.145673  1 O  d -2       

 Vector   15  Occ=0.000000D+00  E= 1.358637D+00  Symmetry=b2
              MO Center=  6.1D-16, -1.3D-17,  2.7D-01, r^2= 1.2D+00
   Bfn.  Coefficient  Atom+Function         Bfn.  Coefficient  Atom+Function  
  ----- ------------  ---------------      ----- ------------  ---------------
    18      0.752837  2 H  py                23      0.752837  3 H  py         
     8     -0.671614  1 O  py                11      0.175926  1 O  d -1       
     5      0.043697  1 O  py         

 Vector   16  Occ=0.000000D+00  E= 1.535580D+00  Symmetry=a1
              MO Center= -1.2D-16,  6.3D-18,  7.5D-02, r^2= 1.2D+00
   Bfn.  Coefficient  Atom+Function         Bfn.  Coefficient  Atom+Function  
  ----- ------------  ---------------      ----- ------------  ---------------
     3      2.973029  1 O  s                  2     -1.631333  1 O  s          
     9      0.994362  1 O  pz                15     -0.777961  2 H  s          
    20     -0.777961  3 H  s                  1     -0.738699  1 O  s          
    16     -0.397734  2 H  s                 21     -0.397734  3 H  s          
    17     -0.330858  2 H  px                22      0.330858  3 H  px         

 Vector   17  Occ=0.000000D+00  E= 1.606366D+00  Symmetry=b1
              MO Center= -5.0D-16, -2.9D-18,  4.1D-01, r^2= 1.3D+00
   Bfn.  Coefficient  Atom+Function         Bfn.  Coefficient  Atom+Function  
  ----- ------------  ---------------      ----- ------------  ---------------
     7      0.895164  1 O  px                19     -0.711887  2 H  pz         
    24      0.711887  3 H  pz                17     -0.440195  2 H  px         
    22     -0.440195  3 H  px                15      0.364823  2 H  s          
    20     -0.364823  3 H  s                 16      0.112275  2 H  s          
    21     -0.112275  3 H  s                 13      0.036498  1 O  d  1       

 Vector   18  Occ=0.000000D+00  E= 2.000055D+00  Symmetry=b1
              MO Center=  3.0D-14, -4.3D-17,  3.9D-01, r^2= 1.2D+00
   Bfn.  Coefficient  Atom+Function         Bfn.  Coefficient  Atom+Function  
  ----- ------------  ---------------      ----- ------------  ---------------
    17      0.742609  2 H  px                22      0.742609  3 H  px         
     4      0.734284  1 O  px                19     -0.528046  2 H  pz         
    24      0.528046  3 H  pz                16      0.396605  2 H  s          
    21     -0.396605  3 H  s                 15      0.224646  2 H  s          
    20     -0.224646  3 H  s                  7      0.172194  1 O  px         

 Vector   19  Occ=0.000000D+00  E= 2.041308D+00  Symmetry=a1
              MO Center= -3.1D-14,  2.4D-17,  3.9D-01, r^2= 1.1D+00
   Bfn.  Coefficient  Atom+Function         Bfn.  Coefficient  Atom+Function  
  ----- ------------  ---------------      ----- ------------  ---------------
     3      0.941680  1 O  s                 17     -0.739129  2 H  px         
    22      0.739129  3 H  px                 6      0.621738  1 O  pz         
     2      0.580330  1 O  s                 19      0.567310  2 H  pz         
    24      0.567310  3 H  pz                15     -0.454128  2 H  s          
    20     -0.454128  3 H  s                  9      0.239170  1 O  pz         

 Vector   20  Occ=0.000000D+00  E= 2.827084D+00  Symmetry=b2
              MO Center= -1.5D-14,  5.7D-17, -5.6D-02, r^2= 6.0D-01
   Bfn.  Coefficient  Atom+Function         Bfn.  Coefficient  Atom+Function  
  ----- ------------  ---------------      ----- ------------  ---------------
    11      1.037074  1 O  d -1              18     -0.397351  2 H  py         
    23     -0.397351  3 H  py                 8      0.312569  1 O  py         

 Vector   21  Occ=0.000000D+00  E= 2.849442D+00  Symmetry=a2
              MO Center=  1.6D-14,  1.7D-16, -6.3D-02, r^2= 5.9D-01
   Bfn.  Coefficient  Atom+Function         Bfn.  Coefficient  Atom+Function  
  ----- ------------  ---------------      ----- ------------  ---------------
    10      1.054975  1 O  d -2              18      0.362381  2 H  py         
    23     -0.362381  3 H  py         

 Vector   22  Occ=0.000000D+00  E= 3.021333D+00  Symmetry=a1
              MO Center= -6.9D-17, -2.0D-19, -5.3D-02, r^2= 6.6D-01
   Bfn.  Coefficient  Atom+Function         Bfn.  Coefficient  Atom+Function  
  ----- ------------  ---------------      ----- ------------  ---------------
    12      1.049801  1 O  d  0               9      0.452419  1 O  pz         
     3      0.348923  1 O  s                 19     -0.345157  2 H  pz         
    24     -0.345157  3 H  pz                14     -0.302882  1 O  d  2       
    17     -0.297396  2 H  px                22      0.297396  3 H  px         
    15     -0.197618  2 H  s                 20     -0.197618  3 H  s          

 Vector   23  Occ=0.000000D+00  E= 3.344582D+00  Symmetry=a1
              MO Center= -5.5D-15,  5.3D-17, -2.2D-02, r^2= 7.9D-01
   Bfn.  Coefficient  Atom+Function         Bfn.  Coefficient  Atom+Function  
  ----- ------------  ---------------      ----- ------------  ---------------
     3      2.302884  1 O  s                 15     -1.198644  2 H  s          
    20     -1.198644  3 H  s                 14      1.115615  1 O  d  2       
     9      1.002609  1 O  pz                17     -0.637102  2 H  px         
    22      0.637102  3 H  px                19      0.469581  2 H  pz         
    24      0.469581  3 H  pz                 6      0.359931  1 O  pz         

 Vector   24  Occ=0.000000D+00  E= 3.635160D+00  Symmetry=b1
              MO Center=  7.7D-15, -3.3D-18, -8.7D-02, r^2= 8.1D-01
   Bfn.  Coefficient  Atom+Function         Bfn.  Coefficient  Atom+Function  
  ----- ------------  ---------------      ----- ------------  ---------------
    13      1.320219  1 O  d  1               7     -1.139428  1 O  px         
    15     -1.018360  2 H  s                 20      1.018360  3 H  s          
    17     -0.594436  2 H  px                22     -0.594436  3 H  px         
    19      0.520338  2 H  pz                24     -0.520338  3 H  pz         
     4     -0.409943  1 O  px                16     -0.311752  2 H  s          


 center of mass
 --------------
 x =   0.00000000 y =   0.00000000 z =  -0.11802314

 moments of inertia (a.u.)
 ------------------
           2.414292336666           0.000000000000           0.000000000000
           0.000000000000           6.583627709246           0.000000000000
           0.000000000000           0.000000000000           4.169335372581

     Multipole analysis of the density
     ---------------------------------

     L   x y z        total         alpha         beta         nuclear
     -   - - -        -----         -----         ----         -------
     0   0 0 0     -0.000000     -5.000000     -5.000000     10.000000

     1   1 0 0     -0.000000     -0.000000     -0.000000      0.000000
     1   0 1 0     -0.000000     -0.000000     -0.000000      0.000000
     1   0 0 1      0.747069      0.452166      0.452166     -0.157262

     2   2 0 0     -3.259761     -3.698362     -3.698362      4.136964
     2   1 1 0     -0.000000     -0.000000     -0.000000      0.000000
     2   1 0 1      0.000000      0.000000      0.000000      0.000000
     2   0 2 0     -5.227580     -2.613790     -2.613790      0.000000
     2   0 1 1      0.000000      0.000000      0.000000      0.000000
     2   0 0 2     -4.400937     -3.280677     -3.280677      2.160417

 Line search: 
     step= 1.00 grad=-3.9D-04 hess= 2.0D-04 energy=    -76.334176 mode=accept  
 new step= 1.00                   predicted energy=    -76.334176
  no constraints, skipping    0.0000000000000000     
  no constraints, skipping    0.0000000000000000     
  no constraints, skipping    0.0000000000000000     
  no constraints, skipping    0.0000000000000000     

          --------
          Step   1
          --------


                         Geometry "geometry" -> "geometry"
                         ---------------------------------

 Output coordinates in angstroms (scale by  1.889725989 to convert to a.u.)

  No.       Tag          Charge          X              Y              Z
 ---- ---------------- ---------- -------------- -------------- --------------
    1 O                    8.0000     0.00000000     0.00000000    -0.13123310
    2 H                    1.0000    -0.76107423     0.00000000     0.48332259
    3 H                    1.0000     0.76107423     0.00000000     0.48332259

      Atomic Mass 
      ----------- 

      O                 15.994910
      H                  1.007825


 Effective nuclear repulsion energy (a.u.)       9.0030086991

            Nuclear Dipole moment (a.u.) 
            ----------------------------
        X                 Y               Z
 ---------------- ---------------- ----------------
     0.0000000000     0.0000000000    -0.1572622300

      Symmetry information
      --------------------

 Group name             C2v       
 Group number             16
 Group order               4
 No. of unique centers     2

      Symmetry unique atoms

     1    2


                                 NWChem DFT Module
                                 -----------------




 Summary of "ao basis" -> "cc-pvdz" (spherical)
 ------------------------------------------------------------------------------
       Tag                 Description            Shells   Functions and Types
 ---------------- ------------------------------  ------  ---------------------
 O                          cc-pvdz                  6       14   3s2p1d
 H                          cc-pvdz                  3        5   2s1p


      Symmetry analysis of basis
      --------------------------

        a1         11
        a2          2
        b1          7
        b2          4


  The DFT is already converged 

         Total DFT energy =    -76.334175708824


            General Information
            -------------------
          SCF calculation type: DFT
          Wavefunction type:  closed shell.
          No. of atoms     :     3
          No. of electrons :    10
           Alpha electrons :     5
            Beta electrons :     5
          Charge           :     0
          Spin multiplicity:     1
          Use of symmetry is: on ; symmetry adaption is: on 
          Maximum number of iterations:  50
          This is a Direct SCF calculation.
          AO basis - number of functions:    24
                     number of shells:    12
          Convergence on energy requested:  1.00D-08
          Convergence on density requested:  1.00D-07
          Convergence on gradient requested:  1.00D-06

              XC Information
              --------------
          PerdewBurkeErnzerhof Exchange Functional  1.000          
            Perdew 1991 LDA Correlation Functional  1.000 local    
           PerdewBurkeErnz. Correlation Functional  1.000 non-local

             Grid Information
             ----------------
          Grid used for XC integration:  medium    
          Radial quadrature: Mura-Knowles        
          Angular quadrature: Lebedev. 
          Tag              B.-S. Rad. Rad. Pts. Rad. Cut. Ang. Pts.
          ---              ---------- --------- --------- ---------
          O                   0.60       49           5.0       434
          H                   0.35       45           7.0       434
          Grid pruning is: on 
          Number of quadrature shells:    94
          Spatial weights used:  Erf1

          Convergence Information
          -----------------------
          Convergence aids based upon iterative change in 
          total energy or number of iterations. 
          Levelshifting, if invoked, occurs when the 
          HOMO/LUMO gap drops below (HL_TOL):  1.00D-02
          DIIS, if invoked, will attempt to extrapolate 
          using up to (NFOCK): 10 stored Fock matrices.

                    Damping( 0%)  Levelshifting(0.5)       DIIS
                  --------------- ------------------- ---------------
          dE  on:    start            ASAP                start   
          dE off:    2 iters         50 iters            50 iters 


      Screening Tolerance Information
      -------------------------------
          Density screening/tol_rho:  1.00D-11
          AO Gaussian exp screening on grid/accAOfunc:  18
          CD Gaussian exp screening on grid/accCDfunc:  20
          XC Gaussian exp screening on grid/accXCfunc:  20
          Schwarz screening/accCoul:  1.00D-09

  texas integral default override: limxmem =             50000000
  texas integral default override: limxmem =             50000000


                            NWChem DFT Gradient Module
                            --------------------------



  charge          =   0.00
  wavefunction    = closed shell

  Using symmetry
  texas integral default override: limxmem =             50000000
  texas integral default override: limxmem =             50000000


                         DFT ENERGY GRADIENTS

    atom               coordinates                        gradient
                 x          y          z           x          y          z
   1 O       0.000000   0.000000  -0.247995    0.000000   0.000000  -0.000455
   2 H      -1.438222   0.000000   0.913347   -0.001627   0.000000   0.000227
   3 H       1.438222   0.000000   0.913347    0.001627   0.000000   0.000227

                 ----------------------------------------
                 |  Time  |  1-e(secs)   |  2-e(secs)   |
                 ----------------------------------------
                 |  CPU   |       0.00   |       0.02   |
                 ----------------------------------------
                 |  WALL  |       0.00   |       0.02   |
                 ----------------------------------------
  no constraints, skipping    0.0000000000000000     

  Step       Energy      Delta E   Gmax     Grms     Xrms     Xmax   Walltime
  ---- ---------------- -------- -------- -------- -------- -------- --------
@    1     -76.33417571 -1.9D-04  0.00141  0.00125  0.00947  0.02251      1.5
                                                                    



                                Z-matrix (autoz)
                                -------- 

 Units are Angstrom for bonds and degrees for angles

      Type          Name      I     J     K     L     M      Value     Gradient
      ----------- --------  ----- ----- ----- ----- ----- ---------- ----------
    1 Stretch                  1     2                       0.97822    0.00141
    2 Stretch                  1     3                       0.97822    0.00141
    3 Bend                     2     1     3               102.15932    0.00083

  no constraints, skipping    0.0000000000000000     
  no constraints, skipping    0.0000000000000000     
  no constraints, skipping    0.0000000000000000     
  no constraints, skipping    0.0000000000000000     

                                 NWChem DFT Module
                                 -----------------




 Summary of "ao basis" -> "cc-pvdz" (spherical)
 ------------------------------------------------------------------------------
       Tag                 Description            Shells   Functions and Types
 ---------------- ------------------------------  ------  ---------------------
 O                          cc-pvdz                  6       14   3s2p1d
 H                          cc-pvdz                  3        5   2s1p


      Symmetry analysis of basis
      --------------------------

        a1         11
        a2          2
        b1          7
        b2          4

  texas integral default override: limxmem =             50000000
  Caching 1-el integrals 

            General Information
            -------------------
          SCF calculation type: DFT
          Wavefunction type:  closed shell.
          No. of atoms     :     3
          No. of electrons :    10
           Alpha electrons :     5
            Beta electrons :     5
          Charge           :     0
          Spin multiplicity:     1
          Use of symmetry is: on ; symmetry adaption is: on 
          Maximum number of iterations:  50
          This is a Direct SCF calculation.
          AO basis - number of functions:    24
                     number of shells:    12
          Convergence on energy requested:  1.00D-08
          Convergence on density requested:  1.00D-07
          Convergence on gradient requested:  1.00D-06

              XC Information
              --------------
          PerdewBurkeErnzerhof Exchange Functional  1.000          
            Perdew 1991 LDA Correlation Functional  1.000 local    
           PerdewBurkeErnz. Correlation Functional  1.000 non-local

             Grid Information
             ----------------
          Grid used for XC integration:  medium    
          Radial quadrature: Mura-Knowles        
          Angular quadrature: Lebedev. 
          Tag              B.-S. Rad. Rad. Pts. Rad. Cut. Ang. Pts.
          ---              ---------- --------- --------- ---------
          O                   0.60       49           5.0       434
          H                   0.35       45           7.0       434
          Grid pruning is: on 
          Number of quadrature shells:    94
          Spatial weights used:  Erf1

          Convergence Information
          -----------------------
          Convergence aids based upon iterative change in 
          total energy or number of iterations. 
          Levelshifting, if invoked, occurs when the 
          HOMO/LUMO gap drops below (HL_TOL):  1.00D-02
          DIIS, if invoked, will attempt to extrapolate 
          using up to (NFOCK): 10 stored Fock matrices.

                    Damping( 0%)  Levelshifting(0.5)       DIIS
                  --------------- ------------------- ---------------
          dE  on:    start            ASAP                start   
          dE off:    2 iters         50 iters            50 iters 


      Screening Tolerance Information
      -------------------------------
          Density screening/tol_rho:  1.00D-11
          AO Gaussian exp screening on grid/accAOfunc:  18
          CD Gaussian exp screening on grid/accCDfunc:  20
          XC Gaussian exp screening on grid/accXCfunc:  20
          Schwarz screening/accCoul:  1.00D-09


 Loading old vectors from job with title :




      Symmetry analysis of molecular orbitals - initial
      -------------------------------------------------

  Numbering of irreducible representations: 

     1 a1          2 a2          3 b1          4 b2      

  Orbital symmetries:

     1 a1          2 a1          3 b1          4 a1          5 b2      
     6 a1          7 b1          8 b1          9 a1         10 a1      
    11 b2         12 b1         13 a1         14 a2         15 b2      

   Time after variat. SCF:      1.5
   Time prior to 1st pass:      1.5

 Grid_pts file          = ./h2o-dat.gridpts.00
 Record size in doubles =  12289        No. of grid_pts per rec  =   3070
 Max. records in memory =      2        Max. recs in file   =    114822


           Memory utilization after 1st SCF pass: 
           Heap Space remaining (MW):       13.08            13080804
          Stack Space remaining (MW):       65.54            65535732

   convergence    iter        energy       DeltaE   RMS-Dens  Diis-err    time
 ---------------- ----- ----------------- --------- --------- ---------  ------
 d= 0,ls=0.0,diis     1    -76.3341780739 -8.54D+01  3.66D-04  4.72D-05     1.6
 d= 0,ls=0.0,diis     2    -76.3341849297 -6.86D-06  3.08D-05  6.42D-07     1.6
 d= 0,ls=0.0,diis     3    -76.3341849194  1.03D-08  1.79D-05  8.43D-07     1.7
 d= 0,ls=0.0,diis     4    -76.3341849921 -7.27D-08  3.34D-06  2.76D-08     1.7
 d= 0,ls=0.0,diis     5    -76.3341849947 -2.55D-09  2.63D-07  2.56D-10     1.7
 d= 0,ls=0.0,diis     6    -76.3341849947 -2.36D-11  1.30D-08  1.16D-13     1.8


         Total DFT energy =      -76.334184994706
      One electron energy =     -122.855396751617
           Coulomb energy =       46.764819173829
    Exchange-Corr. energy =       -9.262103202520
 Nuclear repulsion energy =        9.018495785602

 Numeric. integr. density =        9.999999937209

     Total iterative time =      0.2s



                  Occupations of the irreducible representations
                  ----------------------------------------------

                     irrep           alpha         beta
                     --------     --------     --------
                     a1                3.0          3.0
                     a2                0.0          0.0
                     b1                1.0          1.0
                     b2                1.0          1.0


                       DFT Final Molecular Orbital Analysis
                       ------------------------------------

 Vector    1  Occ=2.000000D+00  E=-1.874327D+01  Symmetry=a1
              MO Center= -9.8D-19,  7.7D-22, -1.3D-01, r^2= 1.5D-02
   Bfn.  Coefficient  Atom+Function         Bfn.  Coefficient  Atom+Function  
  ----- ------------  ---------------      ----- ------------  ---------------
     1      1.003544  1 O  s          

 Vector    2  Occ=2.000000D+00  E=-8.976338D-01  Symmetry=a1
              MO Center= -1.7D-17, -6.1D-34,  8.4D-02, r^2= 5.0D-01
   Bfn.  Coefficient  Atom+Function         Bfn.  Coefficient  Atom+Function  
  ----- ------------  ---------------      ----- ------------  ---------------
     2      0.439982  1 O  s                  3      0.354633  1 O  s          
    15      0.203035  2 H  s                 20      0.203035  3 H  s          
     6      0.124261  1 O  pz                17      0.036105  2 H  px         
    22     -0.036105  3 H  px         

 Vector    3  Occ=2.000000D+00  E=-4.461685D-01  Symmetry=b1
              MO Center= -1.7D-16, -5.3D-17,  1.1D-01, r^2= 8.0D-01
   Bfn.  Coefficient  Atom+Function         Bfn.  Coefficient  Atom+Function  
  ----- ------------  ---------------      ----- ------------  ---------------
     4      0.504504  1 O  px                15     -0.327433  2 H  s          
    20      0.327433  3 H  s                  7      0.202566  1 O  px         
    16     -0.117149  2 H  s                 21      0.117149  3 H  s          
    19      0.028235  2 H  pz                24     -0.028235  3 H  pz         

 Vector    4  Occ=2.000000D+00  E=-3.091672D-01  Symmetry=a1
              MO Center=  3.2D-16,  6.5D-17, -2.0D-01, r^2= 6.8D-01
   Bfn.  Coefficient  Atom+Function         Bfn.  Coefficient  Atom+Function  
  ----- ------------  ---------------      ----- ------------  ---------------
     6      0.537756  1 O  pz                 3     -0.393429  1 O  s          
     9      0.342596  1 O  pz                15      0.206582  2 H  s          
    20      0.206582  3 H  s                  2     -0.174239  1 O  s          
    16      0.054263  2 H  s                 21      0.054263  3 H  s          

 Vector    5  Occ=2.000000D+00  E=-2.243165D-01  Symmetry=b2
              MO Center=  7.6D-17, -1.2D-16, -1.1D-01, r^2= 6.0D-01
   Bfn.  Coefficient  Atom+Function         Bfn.  Coefficient  Atom+Function  
  ----- ------------  ---------------      ----- ------------  ---------------
     5      0.634742  1 O  py                 8      0.490336  1 O  py         
    18      0.033968  2 H  py                23      0.033968  3 H  py         

 Vector    6  Occ=0.000000D+00  E= 2.860445D-02  Symmetry=a1
              MO Center= -1.9D-16, -1.1D-16,  5.9D-01, r^2= 2.6D+00
   Bfn.  Coefficient  Atom+Function         Bfn.  Coefficient  Atom+Function  
  ----- ------------  ---------------      ----- ------------  ---------------
     3      0.852965  1 O  s                 16     -0.737271  2 H  s          
    21     -0.737271  3 H  s                  9      0.317838  1 O  pz         
     6      0.273668  1 O  pz                 2      0.141945  1 O  s          
    15     -0.128537  2 H  s                 20     -0.128537  3 H  s          

 Vector    7  Occ=0.000000D+00  E= 1.035356D-01  Symmetry=b1
              MO Center= -1.2D-15,  3.1D-17,  5.6D-01, r^2= 3.0D+00
   Bfn.  Coefficient  Atom+Function         Bfn.  Coefficient  Atom+Function  
  ----- ------------  ---------------      ----- ------------  ---------------
    16      1.242734  2 H  s                 21     -1.242734  3 H  s          
     7      0.597282  1 O  px                 4      0.399140  1 O  px         
    15      0.143189  2 H  s                 20     -0.143189  3 H  s          

 Vector    8  Occ=0.000000D+00  E= 5.011695D-01  Symmetry=b1
              MO Center= -9.4D-16,  4.1D-17,  3.1D-01, r^2= 2.1D+00
   Bfn.  Coefficient  Atom+Function         Bfn.  Coefficient  Atom+Function  
  ----- ------------  ---------------      ----- ------------  ---------------
    16     -0.943435  2 H  s                 21      0.943435  3 H  s          
[...]

                    7           8           9
 
 Frequency       1626.39     3647.16     3753.39
 
           1    -0.00000    -0.00000     0.06635
           2     0.00000     0.00000     0.00000
           3     0.06746    -0.04945    -0.00000
           4    -0.41640    -0.56809    -0.52652
           5     0.00000     0.00000    -0.00000
           6    -0.53536     0.39241     0.42891
           7     0.41640     0.56809    -0.52652
           8    -0.00000     0.00000    -0.00000
           9    -0.53536     0.39241    -0.42891



 ----------------------------------------------------------------------------
 Normal Eigenvalue ||         Derivative Dipole Moments (debye/angs)
  Mode   [cm**-1]  ||      [d/dqX]             [d/dqY]           [d/dqZ]
 ------ ---------- || ------------------ ------------------ -----------------
    1       -8.874 ||       0.000               0.905             0.000
    2       -8.149 ||       0.377              -0.000             0.000
    3       -7.586 ||      -0.001              -0.000            -0.000
    4       -3.563 ||       1.353               0.000            -0.000
    5       -3.506 ||      -0.000               0.000            -0.000
    6       -3.304 ||      -0.000               2.122             0.000
    7     1626.391 ||      -0.000               0.000             1.066
    8     3647.155 ||       0.000               0.000             0.159
    9     3753.386 ||       0.577              -0.000             0.000
 ----------------------------------------------------------------------------



  
  
 ----------------------------------------------------------------------------
 Normal Eigenvalue ||                 Infra Red Intensities
  Mode   [cm**-1]  || [atomic units] [(debye/angs)**2] [(KM/mol)] [arbitrary]
 ------ ---------- || -------------- ----------------- ---------- -----------
    1       -8.874 ||    0.035509           0.819        34.616       8.387
    2       -8.149 ||    0.006148           0.142         5.993       1.452
    3       -7.586 ||    0.000000           0.000         0.000       0.000
    4       -3.563 ||    0.079397           1.832        77.400      18.754
    5       -3.506 ||    0.000000           0.000         0.000       0.000
    6       -3.304 ||    0.195194           4.503       190.285      46.105
    7     1626.391 ||    0.049281           1.137        48.041      11.640
    8     3647.155 ||    0.001093           0.025         1.065       0.258
    9     3753.386 ||    0.014406           0.332        14.044       3.403
 ----------------------------------------------------------------------------





        Vibrational analysis via the FX method 
  --- with translations and rotations projected out ---
  --- via the Eckart algorithm                      ---
 Projected Nuclear Hessian trans-rot subspace norm:5.0074D-33
                         (should be close to zero!) 

          --------------------------------------------------------
          MASS-WEIGHTED PROJECTED HESSIAN (Hartree/Bohr/Bohr/Kamu)
          --------------------------------------------------------


               1            2            3            4            5            6            7            8            9
   ----- ----- ----- ----- -----
    1    3.80644D+01
    2   -5.05032D-26  0.00000D+00
    3    4.63107D-08 -2.52516D-26  2.69755D+01
    4   -7.58207D+01  0.00000D+00  4.54866D+01  3.32248D+02
    5   -2.01195D-25  0.00000D+00 -7.54481D-26  4.00761D-25  0.00000D+00
    6    5.93321D+01 -1.00597D-25 -5.37326D+01 -2.08789D+02  0.00000D+00  1.99513D+02
    7   -7.58207D+01  0.00000D+00 -4.54866D+01 -3.01931D+01  0.00000D+00 -2.75788D+01  3.32248D+02
    8   -1.50896D-25  0.00000D+00 -2.51494D-26  2.00380D-25  0.00000D+00 -1.00190D-25  5.51046D-25  0.00000D+00
    9   -5.93321D+01  2.01195D-25 -5.37326D+01  2.75788D+01  4.00761D-25  1.45477D+01  2.08789D+02  4.00761D-25  1.99513D+02

 center of mass
 --------------
 x =   0.00000000 y =   0.00000000 z =  -0.09961828

 moments of inertia (a.u.)
 ------------------
           2.278321625069           0.000000000000           0.000000000000
           0.000000000000           6.467771365954           0.000000000000
           0.000000000000           0.000000000000           4.189449740886

 Rotational Constants
 --------------------
 A=  26.423037 cm-1  ( 38.016006 K)
 B=  14.369471 cm-1  ( 20.674001 K)
 C=   9.307715 cm-1  ( 13.391427 K)


 Temperature                      =   198.15K
 frequency scaling parameter      =   1.0000

 Zero-Point correction to Energy  =   12.858 kcal/mol  (  0.020490 au)
 Thermal correction to Energy     =   14.039 kcal/mol  (  0.022372 au)
 Thermal correction to Enthalpy   =   14.432 kcal/mol  (  0.022999 au)

 Total Entropy                    =   41.864 cal/mol-K
   - Translational                =   32.564 cal/mol-K (mol. weight =  18.0106)
   - Rotational                   =    9.300 cal/mol-K (symmetry #  =        2)
   - Vibrational                  =    0.000 cal/mol-K

 Cv (constant volume heat capacity) =    5.961 cal/mol-K
   - Translational                  =    2.979 cal/mol-K
   - Rotational                     =    2.979 cal/mol-K
   - Vibrational                    =    0.002 cal/mol-K


 Temperature                      =   298.15K
 frequency scaling parameter      =   1.0000

 Zero-Point correction to Energy  =   12.858 kcal/mol  (  0.020490 au)
 Thermal correction to Energy     =   14.636 kcal/mol  (  0.023324 au)
 Thermal correction to Enthalpy   =   15.228 kcal/mol  (  0.024268 au)

 Total Entropy                    =   45.117 cal/mol-K
   - Translational                =   34.593 cal/mol-K (mol. weight =  18.0106)
   - Rotational                   =   10.517 cal/mol-K (symmetry #  =        2)
   - Vibrational                  =    0.007 cal/mol-K

 Cv (constant volume heat capacity) =    6.007 cal/mol-K
   - Translational                  =    2.979 cal/mol-K
   - Rotational                     =    2.979 cal/mol-K
   - Vibrational                    =    0.048 cal/mol-K


 Temperature                      =   398.15K
 frequency scaling parameter      =   1.0000

 Zero-Point correction to Energy  =   12.858 kcal/mol  (  0.020490 au)
 Thermal correction to Energy     =   15.243 kcal/mol  (  0.024292 au)
 Thermal correction to Enthalpy   =   16.034 kcal/mol  (  0.025552 au)

 Total Entropy                    =   47.447 cal/mol-K
   - Translational                =   36.029 cal/mol-K (mol. weight =  18.0106)
   - Rotational                   =   11.379 cal/mol-K (symmetry #  =        2)
   - Vibrational                  =    0.038 cal/mol-K

 Cv (constant volume heat capacity) =    6.153 cal/mol-K
   - Translational                  =    2.979 cal/mol-K
   - Rotational                     =    2.979 cal/mol-K
   - Vibrational                    =    0.195 cal/mol-K


 Temperature                      =   498.15K
 frequency scaling parameter      =   1.0000

 Zero-Point correction to Energy  =   12.858 kcal/mol  (  0.020490 au)
 Thermal correction to Energy     =   15.869 kcal/mol  (  0.025290 au)
 Thermal correction to Enthalpy   =   16.859 kcal/mol  (  0.026866 au)

 Total Entropy                    =   49.294 cal/mol-K
   - Translational                =   37.142 cal/mol-K (mol. weight =  18.0106)
   - Rotational                   =   12.047 cal/mol-K (symmetry #  =        2)
   - Vibrational                  =    0.105 cal/mol-K

 Cv (constant volume heat capacity) =    6.377 cal/mol-K
   - Translational                  =    2.979 cal/mol-K
   - Rotational                     =    2.979 cal/mol-K
   - Vibrational                    =    0.418 cal/mol-K


 Temperature                      =   598.15K
 frequency scaling parameter      =   1.0000

 Zero-Point correction to Energy  =   12.858 kcal/mol  (  0.020490 au)
 Thermal correction to Energy     =   16.520 kcal/mol  (  0.026326 au)
 Thermal correction to Enthalpy   =   17.708 kcal/mol  (  0.028220 au)

 Total Entropy                    =   50.846 cal/mol-K
   - Translational                =   38.050 cal/mol-K (mol. weight =  18.0106)
   - Rotational                   =   12.592 cal/mol-K (symmetry #  =        2)
   - Vibrational                  =    0.204 cal/mol-K

 Cv (constant volume heat capacity) =    6.636 cal/mol-K
   - Translational                  =    2.979 cal/mol-K
   - Rotational                     =    2.979 cal/mol-K
   - Vibrational                    =    0.677 cal/mol-K


 Temperature                      =   698.15K
 frequency scaling parameter      =   1.0000

 Zero-Point correction to Energy  =   12.858 kcal/mol  (  0.020490 au)
 Thermal correction to Energy     =   17.197 kcal/mol  (  0.027406 au)
 Thermal correction to Enthalpy   =   18.584 kcal/mol  (  0.029616 au)

 Total Entropy                    =   52.200 cal/mol-K
   - Translational                =   38.818 cal/mol-K (mol. weight =  18.0106)
   - Rotational                   =   13.052 cal/mol-K (symmetry #  =        2)
   - Vibrational                  =    0.330 cal/mol-K

 Cv (constant volume heat capacity) =    6.914 cal/mol-K
   - Translational                  =    2.979 cal/mol-K
   - Rotational                     =    2.979 cal/mol-K
   - Vibrational                    =    0.955 cal/mol-K


 Temperature                      =   798.15K
 frequency scaling parameter      =   1.0000

 Zero-Point correction to Energy  =   12.858 kcal/mol  (  0.020490 au)
 Thermal correction to Energy     =   17.903 kcal/mol  (  0.028530 au)
 Thermal correction to Enthalpy   =   19.488 kcal/mol  (  0.031057 au)

 Total Entropy                    =   53.410 cal/mol-K
   - Translational                =   39.483 cal/mol-K (mol. weight =  18.0106)
   - Rotational                   =   13.451 cal/mol-K (symmetry #  =        2)
   - Vibrational                  =    0.476 cal/mol-K

 Cv (constant volume heat capacity) =    7.203 cal/mol-K
   - Translational                  =    2.979 cal/mol-K
   - Rotational                     =    2.979 cal/mol-K
   - Vibrational                    =    1.245 cal/mol-K


 Temperature                      =   898.15K
 frequency scaling parameter      =   1.0000

 Zero-Point correction to Energy  =   12.858 kcal/mol  (  0.020490 au)
 Thermal correction to Energy     =   18.638 kcal/mol  (  0.029702 au)
 Thermal correction to Enthalpy   =   20.422 kcal/mol  (  0.032545 au)

 Total Entropy                    =   54.512 cal/mol-K
   - Translational                =   40.069 cal/mol-K (mol. weight =  18.0106)
   - Rotational                   =   13.803 cal/mol-K (symmetry #  =        2)
   - Vibrational                  =    0.640 cal/mol-K

 Cv (constant volume heat capacity) =    7.500 cal/mol-K
   - Translational                  =    2.979 cal/mol-K
   - Rotational                     =    2.979 cal/mol-K
   - Vibrational                    =    1.541 cal/mol-K


 Temperature                      =   998.15K
 frequency scaling parameter      =   1.0000

 Zero-Point correction to Energy  =   12.858 kcal/mol  (  0.020490 au)
 Thermal correction to Energy     =   19.403 kcal/mol  (  0.030921 au)
 Thermal correction to Enthalpy   =   21.386 kcal/mol  (  0.034080 au)

 Total Entropy                    =   55.529 cal/mol-K
   - Translational                =   40.593 cal/mol-K (mol. weight =  18.0106)
   - Rotational                   =   14.117 cal/mol-K (symmetry #  =        2)
   - Vibrational                  =    0.819 cal/mol-K

 Cv (constant volume heat capacity) =    7.798 cal/mol-K
   - Translational                  =    2.979 cal/mol-K
   - Rotational                     =    2.979 cal/mol-K
   - Vibrational                    =    1.839 cal/mol-K



          -------------------------------------------------
          NORMAL MODE EIGENVECTORS IN CARTESIAN COORDINATES
          -------------------------------------------------
             (Projected Frequencies expressed in cm-1)

                    1           2           3           4           5           6
 
 P.Frequency       -0.00       -0.00        0.00        0.00        0.00        0.00
 
           1    -0.00523     0.04856     0.00000     0.00000     0.00000    -0.23580
           2     0.00000     0.00000     0.25004     0.00000     0.00000     0.00000
           3     0.23427     0.02527     0.00000     0.00000     0.00000     0.00001
           4     0.04235    -0.39248     0.00000     0.00000     0.00000    -0.23428
           5     0.00000     0.00000     0.00000     0.99611     0.00000     0.00000
           6     0.29508    -0.53833     0.00000     0.00000     0.00000     0.00195
           7     0.04235    -0.39248     0.00000     0.00000     0.00000    -0.23428
           8     0.00000     0.00000     0.00000     0.00000     0.99611     0.00000
           9     0.17347     0.58888     0.00000     0.00000     0.00000    -0.00193

                    7           8           9
 
 P.Frequency     1626.34     3647.14     3724.94
 
           1    -0.00000    -0.00000     0.06732
           2     0.00000     0.00000     0.00000
           3     0.06747    -0.04945    -0.00000
           4    -0.41639    -0.56810    -0.53422
           5     0.00000     0.00000     0.00000
           6    -0.53537     0.39240     0.41804
           7     0.41639     0.56810    -0.53422
           8     0.00000     0.00000     0.00000
           9    -0.53537     0.39240    -0.41804



 ----------------------------------------------------------------------------
 Normal Eigenvalue ||    Projected Derivative Dipole Moments (debye/angs)
  Mode   [cm**-1]  ||      [d/dqX]             [d/dqY]           [d/dqZ]
 ------ ---------- || ------------------ ------------------ -----------------
    1       -0.000 ||       0.149              -0.000             0.000
    2       -0.000 ||      -1.385               0.000             0.000
    3        0.000 ||       0.000              -0.772            -0.000
    4        0.000 ||      -0.000               1.537             0.000
    5        0.000 ||      -0.000               1.537             0.000
    6        0.000 ||      -0.005               0.000             0.000
    7     1626.341 ||      -0.000               0.000             1.066
    8     3647.143 ||       0.000               0.000             0.159
    9     3724.935 ||       0.604              -0.000            -0.000
 ----------------------------------------------------------------------------



  
  
 ----------------------------------------------------------------------------
 Normal Eigenvalue ||           Projected Infra Red Intensities
  Mode   [cm**-1]  || [atomic units] [(debye/angs)**2] [(KM/mol)] [arbitrary]
 ------ ---------- || -------------- ----------------- ---------- -----------
    1       -0.000 ||    0.000968           0.022         0.944       0.229
    2       -0.000 ||    0.083195           1.919        81.102      19.651
    3        0.000 ||    0.025819           0.596        25.170       6.099
    4        0.000 ||    0.102442           2.363        99.866      24.197
    5        0.000 ||    0.102442           2.363        99.866      24.197
    6        0.000 ||    0.000001           0.000         0.001       0.000
    7     1626.341 ||    0.049281           1.137        48.041      11.640
    8     3647.143 ||    0.001092           0.025         1.065       0.258
    9     3724.935 ||    0.015788           0.364        15.391       3.729
 ----------------------------------------------------------------------------



 vib:animation  F

 Task  times  cpu:        0.0s     wall:        0.0s


                                NWChem Input Module
                                -------------------


 Summary of allocated global arrays
-----------------------------------
  No active global arrays


MA_summarize_allocated_blocks: starting scan ...
MA_summarize_allocated_blocks: scan completed: 0 heap blocks, 0 stack blocks
MA usage statistics:

	allocation statistics:
					      heap	     stack
					      ----	     -----
	current number of blocks	         0	         0
	maximum number of blocks	        25	        57
	current total bytes		         0	         0
	maximum total bytes		    407592	 275478248
	maximum total K-bytes		       408	    275479
	maximum total M-bytes		         1	       276


                                     CITATION
                                     --------
                Please cite the following reference when publishing
                           results obtained with NWChem:

          E. Apra, E. J. Bylaska, W. A. de Jong, N. Govind, K. Kowalski,
       T. P. Straatsma, M. Valiev, H. J. J. van Dam, Y. Alexeev, J. Anchell,
       V. Anisimov, F. W. Aquino, R. Atta-Fynn, J. Autschbach, N. P. Bauman,
     J. C. Becca, D. E. Bernholdt, K. Bhaskaran-Nair, S. Bogatko, P. Borowski,
         J. Boschen, J. Brabec, A. Bruner, E. Cauet, Y. Chen, G. N. Chuev,
      C. J. Cramer, J. Daily, M. J. O. Deegan, T. H. Dunning Jr., M. Dupuis,
   K. G. Dyall, G. I. Fann, S. A. Fischer, A. Fonari, H. Fruchtl, L. Gagliardi,
      J. Garza, N. Gawande, S. Ghosh, K. Glaesemann, A. W. Gotz, J. Hammond,
       V. Helms, E. D. Hermes, K. Hirao, S. Hirata, M. Jacquelin, L. Jensen,
   B. G. Johnson, H. Jonsson, R. A. Kendall, M. Klemm, R. Kobayashi, V. Konkov,
      S. Krishnamoorthy, M. Krishnan, Z. Lin, R. D. Lins, R. J. Littlefield,
      A. J. Logsdail, K. Lopata, W. Ma, A. V. Marenich, J. Martin del Campo,
   D. Mejia-Rodriguez, J. E. Moore, J. M. Mullin, T. Nakajima, D. R. Nascimento,
    J. A. Nichols, P. J. Nichols, J. Nieplocha, A. Otero-de-la-Roza, B. Palmer,
    A. Panyala, T. Pirojsirikul, B. Peng, R. Peverati, J. Pittner, L. Pollack,
   R. M. Richard, P. Sadayappan, G. C. Schatz, W. A. Shelton, D. W. Silverstein,
   D. M. A. Smith, T. A. Soares, D. Song, M. Swart, H. L. Taylor, G. S. Thomas,
            V. Tipparaju, D. G. Truhlar, K. Tsemekhman, T. Van Voorhis,
      A. Vazquez-Mayagoitia, P. Verma, O. Villa, A. Vishnu, K. D. Vogiatzis,
        D. Wang, J. H. Weare, M. J. Williamson, T. L. Windus, K. Wolinski,
        A. T. Wong, Q. Wu, C. Yang, Q. Yu, M. Zacharias, Z. Zhang, Y. Zhao,
                                and R. J. Harrison
                        "NWChem: Past, present, and future
                         J. Chem. Phys. 152, 184102 (2020)
                               doi:10.1063/5.0004997

                                      AUTHORS
                                      -------
  E. Apra, E. J. Bylaska, N. Govind, K. Kowalski, M. Valiev, D. Mejia-Rodriguez,
       A. Kunitsa, N. P. Bauman, A. Panyala, W. A. de Jong, T. P. Straatsma,
        H. J. J. van Dam, D. Wang, T. L. Windus, J. Hammond, J. Autschbach,
    K. Bhaskaran-Nair, J. Brabec, K. Lopata, S. A. Fischer, S. Krishnamoorthy,
     M. Jacquelin, W. Ma, M. Klemm, O. Villa, Y. Chen, V. Anisimov, F. Aquino,
    S. Hirata, M. T. Hackler, Eric Hermes, L. Jensen, J. E. Moore, J. C. Becca,
      V. Konjkov, T. Risthaus, M. Malagoli, A. Marenich, A. Otero-de-la-Roza,
        J. Mullin, P. Nichols, R. Peverati, J. Pittner, Y. Zhao, P.-D. Fan,
        A. Fonari, M. J. Williamson, R. J. Harrison, J. R. Rehr, M. Dupuis,
     D. Silverstein, D. M. A. Smith, J. Nieplocha, V. Tipparaju, M. Krishnan,
     B. E. Van Kuiken, A. Vazquez-Mayagoitia, M. Swart, Q. Wu, T. Van Voorhis,
     A. A. Auer, M. Nooijen, L. D. Crosby, E. Brown, G. Cisneros, G. I. Fann,
   H. Fruchtl, J. Garza, K. Hirao, R. A. Kendall, J. A. Nichols, K. Tsemekhman,
    K. Wolinski, J. Anchell, D. E. Bernholdt, P. Borowski, T. Clark, D. Clerc,
   H. Dachsel, M. J. O. Deegan, K. Dyall, D. Elwood, E. Glendening, M. Gutowski,
   A. C. Hess, J. Jaffe, B. G. Johnson, J. Ju, R. Kobayashi, R. Kutteh, Z. Lin,
   R. Littlefield, X. Long, B. Meng, T. Nakajima, S. Niu, L. Pollack, M. Rosing,
   K. Glaesemann, G. Sandrone, M. Stave, H. Taylor, G. Thomas, J. H. van Lenthe,
                               A. T. Wong, Z. Zhang.

 Total times  cpu:      126.2s     wall:      126.7s
