 argument  1 = h3o-dft-pbe.nw



============================== echo of input deck ==============================
echo
start h3o-dat

memory heap 100 mb stack 1024 mb global 2048 mb

geometry
  load ../xyz/h3o+.xyz
end
charge +1

basis "cc-pvdz" spherical
  * library cc-pvdz
end
basis "cc-pvtz" spherical
  * library cc-pvtz
end
basis "cc-pvqz" spherical
  * library cc-pvqz
end
basis "cc-pv5z" spherical
  * library cc-pv5z
end
basis "cc-pv6z" spherical
  * library cc-pv6z
end

dft
  direct
  # select PBE functional following https://doi.org/10.1002/aic.15517
  xc xpbe96 cpbe96
end

set int:txs:limxmem              50000000

set "ao basis" "cc-pvdz"
task dft optimize

set "ao basis" "cc-pvtz"
task dft optimize

set "ao basis" "cc-pvqz"
task dft optimize

set "ao basis" "cc-pv5z"
task dft optimize

set "ao basis" "cc-pv6z"
task dft optimize
================================================================================


                                         
                                         


             Northwest Computational Chemistry Package (NWChem) 7.0.1
             --------------------------------------------------------


                    Environmental Molecular Sciences Laboratory
                       Pacific Northwest National Laboratory
                                Richland, WA 99352

                              Copyright (c) 1994-2020
                       Pacific Northwest National Laboratory
                            Battelle Memorial Institute

             NWChem is an open-source computational chemistry package
                        distributed under the terms of the
                      Educational Community License (ECL) 2.0
             A copy of the license is included with this distribution
                              in the LICENSE.TXT file

                                  ACKNOWLEDGMENT
                                  --------------

            This software and its documentation were developed at the
            EMSL at Pacific Northwest National Laboratory, a multiprogram
            national laboratory, operated for the U.S. Department of Energy
            by Battelle under Contract Number DE-AC05-76RL01830. Support
            for this work was provided by the Department of Energy Office
            of Biological and Environmental Research, Office of Basic
            Energy Sciences, and the Office of Advanced Scientific Computing.


           Job information
           ---------------

    hostname        = node06
    program         = /home/hvandam/nwchem-1-srp-hpc/QA/tests/ZSM-5/nwc/../../../../bin/LINUX64/nwchem
    date            = Fri Jun  2 23:24:55 2023

    compiled        = Fri_Jun_02_17:17:24_2023
    source          = /home/hvandam/nwchem-1-srp-hpc
    nwchem branch   = 7.0.0
    nwchem revision = nwchem_on_git-4134-gde132dc
    ga revision     = 5.8.1
    use scalapack   = F
    input           = h3o-dft-pbe.nw
    prefix          = h3o-dat.
    data base       = ./h3o-dat.db
    status          = startup
    nproc           =       16
    time left       =  86398s



           Memory information
           ------------------

    heap     =   13107194 doubles =    100.0 Mbytes
    stack    =  134217727 doubles =   1024.0 Mbytes
    global   =  268435456 doubles =   2048.0 Mbytes (distinct from heap & stack)
    total    =  415760377 doubles =   3172.0 Mbytes
    verify   = yes
    hardfail = no 


           Directory information
           ---------------------

  0 permanent = .
  0 scratch   = .




                                NWChem Input Module
                                -------------------



 Scaling coordinates for geometry "geometry" by  1.889725989
 (inverse scale =  0.529177249)

 C1  symmetry detected

          ------
          auto-z
          ------
  Looking for out-of-plane bends
  no constraints, skipping    0.0000000000000000     
  no constraints, skipping    0.0000000000000000     


                             Geometry "geometry" -> ""
                             -------------------------

 Output coordinates in angstroms (scale by  1.889725989 to convert to a.u.)

  No.       Tag          Charge          X              Y              Z
 ---- ---------------- ---------- -------------- -------------- --------------
    1 O                    8.0000    -0.00393594    -0.03937203    -0.12267284
    2 H                    1.0000     0.24573764    -0.79112261     0.43543247
    3 H                    1.0000    -0.78901135     0.32504307     0.31300753
    4 H                    1.0000     0.57476125     0.78105575     0.23294275

      Atomic Mass 
      ----------- 

      O                 15.994910
      H                  1.007825


 Effective nuclear repulsion energy (a.u.)      13.7532336861

            Nuclear Dipole moment (a.u.) 
            ----------------------------
        X                 Y               Z
 ---------------- ---------------- ----------------
     0.0000000000     0.0000000000     0.0000000000



                                Z-matrix (autoz)
                                -------- 

 Units are Angstrom for bonds and degrees for angles

      Type          Name      I     J     K     L     M      Value
      ----------- --------  ----- ----- ----- ----- ----- ----------
    1 Stretch                  1     2                       0.96899
    2 Stretch                  1     3                       0.96900
    3 Stretch                  1     4                       1.06511
    4 Bend                     2     1     3               103.97818
    5 Bend                     2     1     4               105.38417
    6 Bend                     3     1     4                90.02276


            XYZ format geometry
            -------------------
     4
 geometry
 O                    -0.00393594    -0.03937203    -0.12267284
 H                     0.24573764    -0.79112261     0.43543247
 H                    -0.78901135     0.32504307     0.31300753
 H                     0.57476125     0.78105575     0.23294275

 ==============================================================================
                                internuclear distances
 ------------------------------------------------------------------------------
       center one      |      center two      | atomic units |  angstroms
 ------------------------------------------------------------------------------
    2 H                |   1 O                |     1.83113  |     0.96899
    3 H                |   1 O                |     1.83114  |     0.96900
    4 H                |   1 O                |     2.01276  |     1.06511
 ------------------------------------------------------------------------------
                         number of included internuclear distances:          3
 ==============================================================================



 ==============================================================================
                                 internuclear angles
 ------------------------------------------------------------------------------
        center 1       |       center 2       |       center 3       |  degrees
 ------------------------------------------------------------------------------
    2 H                |   1 O                |   3 H                |   103.98
    2 H                |   1 O                |   4 H                |   105.38
    3 H                |   1 O                |   4 H                |    90.02
 ------------------------------------------------------------------------------
                            number of included internuclear angles:          3
 ==============================================================================





 Summary of "cc-pvdz" -> "" (spherical)
 ------------------------------------------------------------------------------
       Tag                 Description            Shells   Functions and Types
 ---------------- ------------------------------  ------  ---------------------
 *                          cc-pvdz                   on all atoms 




 Summary of "cc-pvtz" -> "" (spherical)
 ------------------------------------------------------------------------------
       Tag                 Description            Shells   Functions and Types
 ---------------- ------------------------------  ------  ---------------------
 *                          cc-pvtz                   on all atoms 




 Summary of "cc-pvqz" -> "" (spherical)
 ------------------------------------------------------------------------------
       Tag                 Description            Shells   Functions and Types
 ---------------- ------------------------------  ------  ---------------------
 *                          cc-pvqz                   on all atoms 




 Summary of "cc-pv5z" -> "" (spherical)
 ------------------------------------------------------------------------------
       Tag                 Description            Shells   Functions and Types
 ---------------- ------------------------------  ------  ---------------------
 *                          cc-pv5z                   on all atoms 




 Summary of "cc-pv6z" -> "" (spherical)
 ------------------------------------------------------------------------------
       Tag                 Description            Shells   Functions and Types
 ---------------- ------------------------------  ------  ---------------------
 *                          cc-pv6z                   on all atoms 


  pbe96 is a nonlocal functional; adding pw91lda local functional. 


                           NWChem Geometry Optimization
                           ----------------------------


  no constraints, skipping    0.0000000000000000     
 maximum gradient threshold         (gmax) =   0.000450
 rms gradient threshold             (grms) =   0.000300
 maximum cartesian step threshold   (xmax) =   0.001800
 rms cartesian step threshold       (xrms) =   0.001200
 fixed trust radius                (trust) =   0.300000
 maximum step size to saddle      (sadstp) =   0.100000
 energy precision                  (eprec) =   5.0D-06
 maximum number of steps          (nptopt) =   40
 initial hessian option           (inhess) =    0
 line search option               (linopt) =    1
 hessian update option            (modupd) =    1
 saddle point option              (modsad) =    0
 initial eigen-mode to follow     (moddir) =    0
 initial variable to follow       (vardir) =    0
 follow first negative mode     (firstneg) =    T
 apply conjugacy                    (opcg) =    F
 source of zmatrix                         =   autoz   


          -------------------
          Energy Minimization
          -------------------


 Names of Z-matrix variables 
    1              2              3              4              5         
    6         

 Variables with the same non-blank name are constrained to be equal


 Using diagonal initial Hessian 
 Scaling for Hessian diagonals: bonds = 1.00  angles = 0.25  torsions = 0.10

          --------
          Step   0
          --------


                         Geometry "geometry" -> "geometry"
                         ---------------------------------

 Output coordinates in angstroms (scale by  1.889725989 to convert to a.u.)

  No.       Tag          Charge          X              Y              Z
 ---- ---------------- ---------- -------------- -------------- --------------
    1 O                    8.0000    -0.00393594    -0.03937203    -0.12267284
    2 H                    1.0000     0.24573764    -0.79112261     0.43543247
    3 H                    1.0000    -0.78901135     0.32504307     0.31300753
    4 H                    1.0000     0.57476125     0.78105575     0.23294275

      Atomic Mass 
      ----------- 

      O                 15.994910
      H                  1.007825


 Effective nuclear repulsion energy (a.u.)      13.7532336861

            Nuclear Dipole moment (a.u.) 
            ----------------------------
        X                 Y               Z
 ---------------- ---------------- ----------------
     0.0000000000     0.0000000000     0.0000000000


                                 NWChem DFT Module
                                 -----------------


                      Basis "ao basis" -> "cc-pvdz" (spherical)
                      -----
  O (Oxygen)
  ----------
            Exponent  Coefficients 
       -------------- ---------------------------------------------------------
  1 S  1.17200000E+04  0.000710
  1 S  1.75900000E+03  0.005470
  1 S  4.00800000E+02  0.027837
  1 S  1.13700000E+02  0.104800
  1 S  3.70300000E+01  0.283062
  1 S  1.32700000E+01  0.448719
  1 S  5.02500000E+00  0.270952
  1 S  1.01300000E+00  0.015458

  2 S  1.17200000E+04 -0.000160
  2 S  1.75900000E+03 -0.001263
  2 S  4.00800000E+02 -0.006267
  2 S  1.13700000E+02 -0.025716
  2 S  3.70300000E+01 -0.070924
  2 S  1.32700000E+01 -0.165411
  2 S  5.02500000E+00 -0.116955
  2 S  1.01300000E+00  0.557368

  3 S  3.02300000E-01  1.000000

  4 P  1.77000000E+01  0.043018
  4 P  3.85400000E+00  0.228913
  4 P  1.04600000E+00  0.508728

  5 P  2.75300000E-01  1.000000

  6 D  1.18500000E+00  1.000000

  H (Hydrogen)
  ------------
            Exponent  Coefficients 
       -------------- ---------------------------------------------------------
  1 S  1.30100000E+01  0.019685
  1 S  1.96200000E+00  0.137977
  1 S  4.44600000E-01  0.478148

  2 S  1.22000000E-01  1.000000

  3 P  7.27000000E-01  1.000000



 Summary of "ao basis" -> "cc-pvdz" (spherical)
 ------------------------------------------------------------------------------
       Tag                 Description            Shells   Functions and Types
 ---------------- ------------------------------  ------  ---------------------
 O                          cc-pvdz                  6       14   3s2p1d
 H                          cc-pvdz                  3        5   2s1p




 Summary of "ao basis" -> "cc-pvdz" (spherical)
 ------------------------------------------------------------------------------
       Tag                 Description            Shells   Functions and Types
 ---------------- ------------------------------  ------  ---------------------
 O                          cc-pvdz                  6       14   3s2p1d
 H                          cc-pvdz                  3        5   2s1p


  texas integral default override: limxmem =             50000000
  Caching 1-el integrals 

            General Information
            -------------------
          SCF calculation type: DFT
          Wavefunction type:  closed shell.
          No. of atoms     :     4
          No. of electrons :    10
           Alpha electrons :     5
            Beta electrons :     5
          Charge           :     1
          Spin multiplicity:     1
          Use of symmetry is: off; symmetry adaption is: off
          Maximum number of iterations: 500
          This is a Direct SCF calculation.
          AO basis - number of functions:    29
                     number of shells:    15
          Convergence on energy requested:  1.00D-06
          Convergence on density requested:  1.00D-05
          Convergence on gradient requested:  5.00D-04

              XC Information
              --------------
          PerdewBurkeErnzerhof Exchange Functional  1.000          
            Perdew 1991 LDA Correlation Functional  1.000 local    
           PerdewBurkeErnz. Correlation Functional  1.000 non-local

             Grid Information
             ----------------
          Grid used for XC integration:  medium    
          Radial quadrature: Mura-Knowles        
          Angular quadrature: Lebedev. 
          Tag              B.-S. Rad. Rad. Pts. Rad. Cut. Ang. Pts.
          ---              ---------- --------- --------- ---------
          O                   0.60       49           5.0       434
          H                   0.35       45           7.0       434
          Grid pruning is: on 
          Number of quadrature shells:   184
          Spatial weights used:  Erf1

          Convergence Information
          -----------------------
          Convergence aids based upon iterative change in 
          total energy or number of iterations. 
          Levelshifting, if invoked, occurs when the 
          HOMO/LUMO gap drops below (HL_TOL):  1.00D-02
          DIIS, if invoked, will attempt to extrapolate 
          using up to (NFOCK): 10 stored Fock matrices.

                    Damping( 0%)  Levelshifting(0.5)       DIIS
                  --------------- ------------------- ---------------
          dE  on:    start            ASAP                start   
          dE off:    2 iters        500 iters           500 iters 


      Screening Tolerance Information
      -------------------------------
          Density screening/tol_rho:  1.00D-10
          AO Gaussian exp screening on grid/accAOfunc:  14
          CD Gaussian exp screening on grid/accCDfunc:  20
          XC Gaussian exp screening on grid/accXCfunc:  20
          Schwarz screening/accCoul:  1.00D-08


      Superposition of Atomic Density Guess
      -------------------------------------

 Sum of atomic energies:         -76.26150811

 Renormalizing density from      11.00 to     10

      Non-variational initial energy
      ------------------------------

 Total energy =     -71.845039
 1-e energy   =    -119.229404
 2-e energy   =      33.631131
 HOMO         =      -1.232174
 LUMO         =      -0.356776

   Time after variat. SCF:      0.4
   Time prior to 1st pass:      0.4

 Grid_pts file          = ./h3o-dat.gridpts.00
 Record size in doubles =  12289        No. of grid_pts per rec  =   3070
 Max. records in memory =      3        Max. recs in file   =   4694726


           Memory utilization after 1st SCF pass: 
           Heap Space remaining (MW):       13.07            13068426
          Stack Space remaining (MW):      134.22           134217404

   convergence    iter        energy       DeltaE   RMS-Dens  Diis-err    time
 ---------------- ----- ----------------- --------- --------- ---------  ------
 d= 0,ls=0.0,diis     1    -76.2963596406 -9.00D+01  6.36D-02  3.59D+00     0.5
 d= 0,ls=0.0,diis     2    -75.6813841610  6.15D-01  4.47D-02  8.95D+00     0.6
 d= 0,ls=0.0,diis     3    -76.6016638204 -9.20D-01  3.14D-03  4.70D-02     0.6
 d= 0,ls=0.0,diis     4    -76.6065297210 -4.87D-03  4.17D-04  5.27D-04     0.7
 d= 0,ls=0.0,diis     5    -76.6065790901 -4.94D-05  6.81D-05  1.11D-05     0.7
  Resetting Diis
 d= 0,ls=0.0,diis     6    -76.6065801558 -1.07D-06  1.31D-05  5.45D-07     0.8
 d= 0,ls=0.0,diis     7    -76.6065802073 -5.15D-08  2.27D-06  5.89D-09     0.9


         Total DFT energy =      -76.606580207264
      One electron energy =     -128.047288950453
           Coulomb energy =       46.991222139794
    Exchange-Corr. energy =       -9.303747082686
 Nuclear repulsion energy =       13.753233686081

 Numeric. integr. density =        9.999998655413

     Total iterative time =      0.5s



                       DFT Final Molecular Orbital Analysis
                       ------------------------------------

 Vector    1  Occ=2.000000D+00  E=-1.921429D+01
              MO Center= -3.9D-03, -3.9D-02, -1.2D-01, r^2= 1.5D-02
   Bfn.  Coefficient  Atom+Function         Bfn.  Coefficient  Atom+Function  
  ----- ------------  ---------------      ----- ------------  ---------------
     1      1.003777  1 O  s          

 Vector    2  Occ=2.000000D+00  E=-1.374801D+00
              MO Center= -2.4D-02, -4.2D-03,  6.0D-02, r^2= 4.9D-01
   Bfn.  Coefficient  Atom+Function         Bfn.  Coefficient  Atom+Function  
  ----- ------------  ---------------      ----- ------------  ---------------
     2      0.463002  1 O  s                  3      0.296989  1 O  s          
    20      0.192212  3 H  s                 15      0.181548  2 H  s          
    25      0.148212  4 H  s                  6      0.116498  1 O  pz         
    22      0.040030  3 H  px                18      0.039756  2 H  py         
    28     -0.031220  4 H  py         

 Vector    3  Occ=2.000000D+00  E=-8.834797D-01
              MO Center=  1.7D-03, -1.2D-01,  5.2D-02, r^2= 7.0D-01
   Bfn.  Coefficient  Atom+Function         Bfn.  Coefficient  Atom+Function  
  ----- ------------  ---------------      ----- ------------  ---------------
     5      0.493866  1 O  py                15     -0.346421  2 H  s          
    20      0.239586  3 H  s                  4     -0.217900  1 O  px         
     8      0.182170  1 O  py                25      0.155036  4 H  s          
     7     -0.079233  1 O  px                 6     -0.055127  1 O  pz         
    16     -0.045380  2 H  s                 18     -0.029951  2 H  py         

 Vector    4  Occ=2.000000D+00  E=-8.321861D-01
              MO Center=  2.3D-02,  1.4D-01,  1.3D-03, r^2= 7.1D-01
   Bfn.  Coefficient  Atom+Function         Bfn.  Coefficient  Atom+Function  
  ----- ------------  ---------------      ----- ------------  ---------------
     4      0.511844  1 O  px                25      0.307430  4 H  s          
    20     -0.272976  3 H  s                  7      0.226328  1 O  px         
     5      0.211500  1 O  py                 8      0.097296  1 O  py         
     6     -0.062581  1 O  pz                26      0.061751  4 H  s          
    21     -0.047191  3 H  s                 15     -0.044082  2 H  s          

 Vector    5  Occ=2.000000D+00  E=-7.121149D-01
              MO Center= -9.6D-03, -4.7D-02, -2.2D-01, r^2= 5.9D-01
   Bfn.  Coefficient  Atom+Function         Bfn.  Coefficient  Atom+Function  
  ----- ------------  ---------------      ----- ------------  ---------------
     6      0.596036  1 O  pz                 9      0.350458  1 O  pz         
     3     -0.314322  1 O  s                  2     -0.171871  1 O  s          
    15      0.139129  2 H  s                 25      0.124695  4 H  s          
    20      0.114933  3 H  s                  5      0.071758  1 O  py         
     8      0.042221  1 O  py                 4      0.039890  1 O  px         

 Vector    6  Occ=0.000000D+00  E=-3.116657D-01
              MO Center=  2.4D-01,  4.2D-01,  3.5D-01, r^2= 2.3D+00
   Bfn.  Coefficient  Atom+Function         Bfn.  Coefficient  Atom+Function  
  ----- ------------  ---------------      ----- ------------  ---------------
     3      0.711837  1 O  s                 26     -0.634720  4 H  s          
    21     -0.318447  3 H  s                 25     -0.314247  4 H  s          
    16     -0.311265  2 H  s                  6      0.233476  1 O  pz         
     2      0.227962  1 O  s                  9      0.165544  1 O  pz         
     5      0.160405  1 O  py                 8      0.140877  1 O  py         

 Vector    7  Occ=0.000000D+00  E=-2.273692D-01
              MO Center= -6.8D-02,  1.6D-01,  3.4D-01, r^2= 2.5D+00
   Bfn.  Coefficient  Atom+Function         Bfn.  Coefficient  Atom+Function  
  ----- ------------  ---------------      ----- ------------  ---------------
    26      0.860082  4 H  s                 21     -0.758116  3 H  s          
    16     -0.573869  2 H  s                 25      0.380469  4 H  s          
     7     -0.357068  1 O  px                 4     -0.316044  1 O  px         
     8     -0.302283  1 O  py                 3      0.291927  1 O  s          
     5     -0.270768  1 O  py                20     -0.270403  3 H  s          

 Vector    8  Occ=0.000000D+00  E=-1.970538D-01
              MO Center= -2.1D-01, -3.3D-01,  4.3D-01, r^2= 2.6D+00
   Bfn.  Coefficient  Atom+Function         Bfn.  Coefficient  Atom+Function  
  ----- ------------  ---------------      ----- ------------  ---------------
    16      1.082615  2 H  s                 21     -0.988075  3 H  s          
     8      0.387894  1 O  py                 7     -0.347681  1 O  px         
     5      0.329429  1 O  py                15      0.312275  2 H  s          
     4     -0.293676  1 O  px                20     -0.282563  3 H  s          
     9     -0.053765  1 O  pz                 6     -0.047484  1 O  pz         

 Vector    9  Occ=0.000000D+00  E= 1.280245D-01
              MO Center=  2.5D-01,  5.2D-01,  1.9D-01, r^2= 2.7D+00
   Bfn.  Coefficient  Atom+Function         Bfn.  Coefficient  Atom+Function  
  ----- ------------  ---------------      ----- ------------  ---------------
    26      1.379168  4 H  s                 21     -0.997560  3 H  s          
    25     -0.995708  4 H  s                 20      0.712987  3 H  s          
     7      0.157124  1 O  px                 3     -0.128761  1 O  s          
     4      0.089857  1 O  px                17      0.086802  2 H  px         
    10     -0.070649  1 O  d -2               9     -0.061833  1 O  pz         

 Vector   10  Occ=0.000000D+00  E= 1.681359D-01
              MO Center=  9.2D-02, -3.4D-01,  2.6D-01, r^2= 2.4D+00
   Bfn.  Coefficient  Atom+Function         Bfn.  Coefficient  Atom+Function  
  ----- ------------  ---------------      ----- ------------  ---------------
    16     -1.207323  2 H  s                 15      1.112606  2 H  s          
    21      0.617501  3 H  s                 20     -0.536718  3 H  s          
    26      0.427897  4 H  s                 25     -0.349956  4 H  s          
     8      0.221559  1 O  py                 5      0.180002  1 O  py         
     7     -0.126770  1 O  px                19      0.081466  2 H  pz         

 Vector   11  Occ=0.000000D+00  E= 2.564562D-01
              MO Center= -2.6D-01,  1.7D-01,  2.5D-01, r^2= 2.3D+00
   Bfn.  Coefficient  Atom+Function         Bfn.  Coefficient  Atom+Function  
  ----- ------------  ---------------      ----- ------------  ---------------
    21     -0.759158  3 H  s                 20      0.747417  3 H  s          
     3      0.667659  1 O  s                 15      0.463324  2 H  s          
    26     -0.460707  4 H  s                 25      0.454382  4 H  s          
     6     -0.399550  1 O  pz                16     -0.360526  2 H  s          
     2     -0.334042  1 O  s                  9      0.314474  1 O  pz         

 Vector   12  Occ=0.000000D+00  E= 4.723078D-01
              MO Center=  3.8D-02,  2.1D-02, -2.8D-02, r^2= 1.3D+00
   Bfn.  Coefficient  Atom+Function         Bfn.  Coefficient  Atom+Function  
  ----- ------------  ---------------      ----- ------------  ---------------
     9      1.076315  1 O  pz                 6     -0.729760  1 O  pz         
    20     -0.493539  3 H  s                  3      0.463999  1 O  s          
    15     -0.418547  2 H  s                 25     -0.397203  4 H  s          
    16     -0.240788  2 H  s                 19      0.237523  2 H  pz         
    26      0.217105  4 H  s                  2      0.196823  1 O  s          

 Vector   13  Occ=0.000000D+00  E= 5.631490D-01
              MO Center=  1.4D-01,  7.2D-02,  7.8D-02, r^2= 1.8D+00
   Bfn.  Coefficient  Atom+Function         Bfn.  Coefficient  Atom+Function  
  ----- ------------  ---------------      ----- ------------  ---------------
     7      1.103073  1 O  px                21      0.870764  3 H  s          
    16     -0.841781  2 H  s                  8     -0.828386  1 O  py         
     4     -0.546415  1 O  px                 5      0.404148  1 O  py         
    20      0.311175  3 H  s                 27      0.275220  4 H  px         
    23     -0.264805  3 H  py                26     -0.210839  4 H  s          

 Vector   14  Occ=0.000000D+00  E= 5.752194D-01
              MO Center= -1.0D-01, -1.4D-01,  8.3D-03, r^2= 1.8D+00
   Bfn.  Coefficient  Atom+Function         Bfn.  Coefficient  Atom+Function  
  ----- ------------  ---------------      ----- ------------  ---------------
     8      1.170726  1 O  py                 7      0.928378  1 O  px         
    26     -0.908363  4 H  s                  5     -0.575262  1 O  py         
    16      0.547941  2 H  s                 21      0.540825  3 H  s          
     4     -0.535462  1 O  px                25     -0.309798  4 H  s          
    28      0.189062  4 H  py                18      0.182912  2 H  py         

 Vector   15  Occ=0.000000D+00  E= 6.164229D-01
              MO Center=  8.2D-04,  4.7D-02,  6.5D-02, r^2= 1.4D+00
   Bfn.  Coefficient  Atom+Function         Bfn.  Coefficient  Atom+Function  
  ----- ------------  ---------------      ----- ------------  ---------------
     8      0.988723  1 O  py                27      0.448753  4 H  px         
     7     -0.406092  1 O  px                16      0.399071  2 H  s          
    22     -0.380545  3 H  px                23     -0.369623  3 H  py         
    21     -0.363320  3 H  s                 15      0.270662  2 H  s          
    18      0.256914  2 H  py                 5     -0.243470  1 O  py         

 Vector   16  Occ=0.000000D+00  E= 7.229763D-01
              MO Center= -9.9D-02,  1.2D-01,  1.3D-01, r^2= 1.3D+00
   Bfn.  Coefficient  Atom+Function         Bfn.  Coefficient  Atom+Function  
  ----- ------------  ---------------      ----- ------------  ---------------
     7      0.723850  1 O  px                17     -0.516972  2 H  px         
    24      0.441435  3 H  pz                29     -0.359820  4 H  pz         
    28      0.297830  4 H  py                20      0.261695  3 H  s          
    22      0.246613  3 H  px                21      0.219563  3 H  s          
    23     -0.216348  3 H  py                25     -0.174655  4 H  s          

 Vector   17  Occ=0.000000D+00  E= 8.774943D-01
              MO Center=  1.1D-02, -4.1D-02, -1.3D-01, r^2= 1.5D+00
   Bfn.  Coefficient  Atom+Function         Bfn.  Coefficient  Atom+Function  
  ----- ------------  ---------------      ----- ------------  ---------------
     3      1.183381  1 O  s                  2     -0.859516  1 O  s          
     9     -0.660635  1 O  pz                19      0.473859  2 H  pz         
    29      0.457248  4 H  pz                24      0.417614  3 H  pz         
     1     -0.358637  1 O  s                 21     -0.263079  3 H  s          
    16     -0.257364  2 H  s                 18      0.234718  2 H  py         

 Vector   18  Occ=0.000000D+00  E= 1.137246D+00
              MO Center=  1.2D-01,  6.1D-02,  3.2D-01, r^2= 1.4D+00
   Bfn.  Coefficient  Atom+Function         Bfn.  Coefficient  Atom+Function  
  ----- ------------  ---------------      ----- ------------  ---------------
    17      0.673193  2 H  px                23     -0.487355  3 H  py         
    28      0.482451  4 H  py                27     -0.406887  4 H  px         
     8     -0.252095  1 O  py                18      0.230146  2 H  py         
    29     -0.215091  4 H  pz                 7     -0.172733  1 O  px         
    25      0.153111  4 H  s                 24      0.133176  3 H  pz         

 Vector   19  Occ=0.000000D+00  E= 1.299587D+00
              MO Center=  1.5D-02,  5.8D-02,  2.2D-01, r^2= 1.5D+00
   Bfn.  Coefficient  Atom+Function         Bfn.  Coefficient  Atom+Function  
  ----- ------------  ---------------      ----- ------------  ---------------
     8      1.144693  1 O  py                29      0.678746  4 H  pz         
    23     -0.645753  3 H  py                15      0.607067  2 H  s          
    19     -0.604595  2 H  pz                 3     -0.330573  1 O  s          
     9     -0.320516  1 O  pz                25     -0.297197  4 H  s          
    24      0.285755  3 H  pz                18     -0.283689  2 H  py         

 Vector   20  Occ=0.000000D+00  E= 1.330444D+00
              MO Center=  4.3D-03,  1.8D-01,  2.2D-01, r^2= 1.4D+00
   Bfn.  Coefficient  Atom+Function         Bfn.  Coefficient  Atom+Function  
  ----- ------------  ---------------      ----- ------------  ---------------
     7      1.003440  1 O  px                24     -0.703199  3 H  pz         
    20      0.547465  3 H  s                 28      0.542835  4 H  py         
    17     -0.530217  2 H  px                29      0.429420  4 H  pz         
    19      0.363780  2 H  pz                27     -0.293787  4 H  px         
     3     -0.265095  1 O  s                 21      0.262249  3 H  s          

 Vector   21  Occ=0.000000D+00  E= 1.450152D+00
              MO Center=  2.2D-01,  3.7D-01,  1.9D-01, r^2= 1.1D+00
   Bfn.  Coefficient  Atom+Function         Bfn.  Coefficient  Atom+Function  
  ----- ------------  ---------------      ----- ------------  ---------------
     3      1.388011  1 O  s                  2     -1.171027  1 O  s          
     9      0.612781  1 O  pz                27     -0.566870  4 H  px         
     1     -0.513709  1 O  s                 25     -0.476720  4 H  s          
    28     -0.378160  4 H  py                20     -0.361946  3 H  s          
    15     -0.329474  2 H  s                  8      0.292940  1 O  py         

 Vector   22  Occ=0.000000D+00  E= 1.600246D+00
              MO Center=  1.1D-01, -1.7D-01,  2.8D-01, r^2= 1.3D+00
   Bfn.  Coefficient  Atom+Function         Bfn.  Coefficient  Atom+Function  
  ----- ------------  ---------------      ----- ------------  ---------------
     3      1.212312  1 O  s                  2     -0.991522  1 O  s          
    19     -0.570354  2 H  pz                 9      0.533145  1 O  pz         
    27      0.514046  4 H  px                18      0.508381  2 H  py         
    28      0.491466  4 H  py                 1     -0.458367  1 O  s          
     5      0.432004  1 O  py                26     -0.410289  4 H  s          

 Vector   23  Occ=0.000000D+00  E= 1.668714D+00
              MO Center= -3.8D-01,  3.7D-03,  2.8D-01, r^2= 1.2D+00
   Bfn.  Coefficient  Atom+Function         Bfn.  Coefficient  Atom+Function  
  ----- ------------  ---------------      ----- ------------  ---------------
    22      0.904320  3 H  px                18     -0.612310  2 H  py         
     4      0.526923  1 O  px                 5     -0.457556  1 O  py         
    21      0.439578  3 H  s                 16     -0.363819  2 H  s          
    24     -0.346025  3 H  pz                 3      0.317869  1 O  s          
    19      0.307455  2 H  pz                 2     -0.286928  1 O  s          

 Vector   24  Occ=0.000000D+00  E= 2.083870D+00
              MO Center=  1.7D-02,  1.3D-02,  1.9D-01, r^2= 1.5D+00
   Bfn.  Coefficient  Atom+Function         Bfn.  Coefficient  Atom+Function  
  ----- ------------  ---------------      ----- ------------  ---------------
     3      4.131366  1 O  s                  9      1.565606  1 O  pz         
    20     -1.435820  3 H  s                 15     -1.410132  2 H  s          
    25     -1.226093  4 H  s                 18     -1.010856  2 H  py         
    28      0.860686  4 H  py                22     -0.824478  3 H  px         
     2     -0.681051  1 O  s                 23      0.489833  3 H  py         

 Vector   25  Occ=0.000000D+00  E= 2.505097D+00
              MO Center= -4.1D-02,  2.5D-02, -6.5D-02, r^2= 6.6D-01
   Bfn.  Coefficient  Atom+Function         Bfn.  Coefficient  Atom+Function  
  ----- ------------  ---------------      ----- ------------  ---------------
    12      0.607199  1 O  d  0              14     -0.581099  1 O  d  2       
    11      0.530694  1 O  d -1               9      0.393739  1 O  pz         
    10     -0.378566  1 O  d -2               3      0.357413  1 O  s          
    24     -0.296951  3 H  pz                23     -0.289223  3 H  py         
    29     -0.275729  4 H  pz                22     -0.249805  3 H  px         

 Vector   26  Occ=0.000000D+00  E= 2.566785D+00
              MO Center=  2.0D-02, -6.5D-02, -4.9D-02, r^2= 6.8D-01
   Bfn.  Coefficient  Atom+Function         Bfn.  Coefficient  Atom+Function  
  ----- ------------  ---------------      ----- ------------  ---------------
    13      0.800700  1 O  d  1               3      0.614471  1 O  s          
    14     -0.545366  1 O  d  2              17      0.504869  2 H  px         
    10      0.432726  1 O  d -2               7     -0.307744  1 O  px         
    20     -0.292103  3 H  s                 27      0.232036  4 H  px         
     9      0.225874  1 O  pz                15     -0.225590  2 H  s          

 Vector   27  Occ=0.000000D+00  E= 2.679025D+00
              MO Center= -1.6D-02, -4.6D-02, -3.2D-02, r^2= 7.3D-01
   Bfn.  Coefficient  Atom+Function         Bfn.  Coefficient  Atom+Function  
  ----- ------------  ---------------      ----- ------------  ---------------
     3      1.405493  1 O  s                 12     -0.875897  1 O  d  0       
    19      0.510723  2 H  pz                20     -0.510973  3 H  s          
    25     -0.480520  4 H  s                 14     -0.471424  1 O  d  2       
    15     -0.430553  2 H  s                 10     -0.425539  1 O  d -2       
    24      0.380185  3 H  pz                22     -0.293508  3 H  px         

 Vector   28  Occ=0.000000D+00  E= 3.167527D+00
              MO Center=  3.7D-02, -3.0D-02, -7.8D-02, r^2= 8.6D-01
   Bfn.  Coefficient  Atom+Function         Bfn.  Coefficient  Atom+Function  
  ----- ------------  ---------------      ----- ------------  ---------------
     8      1.070916  1 O  py                15      1.072366  2 H  s          
    11      0.904143  1 O  d -1              10      0.866908  1 O  d -2       
    25     -0.773233  4 H  s                 18      0.587176  2 H  py         
    28      0.549962  4 H  py                19     -0.454499  2 H  pz         
     3     -0.451919  1 O  s                 27      0.409201  4 H  px         

 Vector   29  Occ=0.000000D+00  E= 3.234490D+00
              MO Center= -4.2D-02, -2.3D-02, -8.8D-02, r^2= 8.5D-01
   Bfn.  Coefficient  Atom+Function         Bfn.  Coefficient  Atom+Function  
  ----- ------------  ---------------      ----- ------------  ---------------
    20      1.247138  3 H  s                  7      1.032025  1 O  px         
    13     -0.840939  1 O  d  1              15     -0.775867  2 H  s          
    22      0.754760  3 H  px                14     -0.684615  1 O  d  2       
     8     -0.595544  1 O  py                11     -0.587658  1 O  d -1       
    10      0.468853  1 O  d -2              18     -0.464156  2 H  py         


 center of mass
 --------------
 x =  -0.00310223 y =  -0.03103221 z =  -0.09668816

 moments of inertia (a.u.)
 ------------------
           6.810612131217           0.000000000000           0.000000000000
           0.000000000000           5.559532391651           0.000000000000
           0.000000000000           0.000000000000           8.546062953747

     Multipole analysis of the density
     ---------------------------------

     L   x y z        total         alpha         beta         nuclear
     -   - - -        -----         -----         ----         -------
     0   0 0 0      1.000000     -5.000000     -5.000000     11.000000

     1   1 0 0      0.046088      0.023044      0.023044      0.000000
     1   0 1 0      0.263812      0.131906      0.131906      0.000000
     1   0 0 1      0.875842      0.437921      0.437921      0.000000

     2   2 0 0     -2.623112     -3.121015     -3.121015      3.618918
     2   1 1 0     -0.010365     -0.003913     -0.003913     -0.002539
     2   1 0 1     -0.008705     -0.000397     -0.000397     -0.007911
     2   0 2 0     -1.917366     -3.376253     -3.376253      4.835140
     2   0 1 1     -0.129620     -0.025244     -0.025244     -0.079132
     2   0 0 2     -4.019596     -2.835118     -2.835118      1.650641


            General Information
            -------------------
          SCF calculation type: DFT
          Wavefunction type:  closed shell.
          No. of atoms     :     4
          No. of electrons :    10
           Alpha electrons :     5
            Beta electrons :     5
          Charge           :     1
          Spin multiplicity:     1
          Use of symmetry is: off; symmetry adaption is: off
          Maximum number of iterations: 500
          This is a Direct SCF calculation.
          AO basis - number of functions:    29
                     number of shells:    15
          Convergence on energy requested:  1.00D-06
          Convergence on density requested:  1.00D-05
          Convergence on gradient requested:  5.00D-04

              XC Information
              --------------
          PerdewBurkeErnzerhof Exchange Functional  1.000          
            Perdew 1991 LDA Correlation Functional  1.000 local    
           PerdewBurkeErnz. Correlation Functional  1.000 non-local

             Grid Information
             ----------------
          Grid used for XC integration:  medium    
          Radial quadrature: Mura-Knowles        
          Angular quadrature: Lebedev. 
          Tag              B.-S. Rad. Rad. Pts. Rad. Cut. Ang. Pts.
          ---              ---------- --------- --------- ---------
          O                   0.60       49           5.0       434
          H                   0.35       45           7.0       434
          Grid pruning is: on 
          Number of quadrature shells:   184
          Spatial weights used:  Erf1

          Convergence Information
          -----------------------
          Convergence aids based upon iterative change in 
          total energy or number of iterations. 
          Levelshifting, if invoked, occurs when the 
          HOMO/LUMO gap drops below (HL_TOL):  1.00D-02
          DIIS, if invoked, will attempt to extrapolate 
          using up to (NFOCK): 10 stored Fock matrices.

                    Damping( 0%)  Levelshifting(0.5)       DIIS
                  --------------- ------------------- ---------------
          dE  on:    start            ASAP                start   
          dE off:    2 iters        500 iters           500 iters 


      Screening Tolerance Information
      -------------------------------
          Density screening/tol_rho:  1.00D-10
          AO Gaussian exp screening on grid/accAOfunc:  14
          CD Gaussian exp screening on grid/accCDfunc:  20
          XC Gaussian exp screening on grid/accXCfunc:  20
          Schwarz screening/accCoul:  1.00D-08

  texas integral default override: limxmem =             50000000
  texas integral default override: limxmem =             50000000


                            NWChem DFT Gradient Module
                            --------------------------



  charge          =   1.00
  wavefunction    = closed shell

  texas integral default override: limxmem =             50000000
  texas integral default override: limxmem =             50000000


                         DFT ENERGY GRADIENTS

    atom               coordinates                        gradient
                 x          y          z           x          y          z
   1 O      -0.007438  -0.074402  -0.231818   -0.031454  -0.064277  -0.010096
   2 H       0.464377  -1.495005   0.822848   -0.010655   0.023832  -0.012008
   3 H      -1.491015   0.614242   0.591498    0.041520   0.004203  -0.001876
   4 H       1.086141   1.475981   0.440198    0.000589   0.036242   0.023980

                 ----------------------------------------
                 |  Time  |  1-e(secs)   |  2-e(secs)   |
                 ----------------------------------------
                 |  CPU   |       0.00   |       0.03   |
                 ----------------------------------------
                 |  WALL  |       0.00   |       0.03   |
                 ----------------------------------------
  no constraints, skipping    0.0000000000000000     

@ Step       Energy      Delta E   Gmax     Grms     Xrms     Xmax   Walltime
@ ---- ---------------- -------- -------- -------- -------- -------- --------
@    0     -76.60658021  0.0D+00  0.03624  0.02546  0.00000  0.00000      1.1
                                                                    



                                Z-matrix (autoz)
                                -------- 

 Units are Angstrom for bonds and degrees for angles

      Type          Name      I     J     K     L     M      Value     Gradient
      ----------- --------  ----- ----- ----- ----- ----- ---------- ----------
    1 Stretch                  1     2                       0.96899   -0.02815
    2 Stretch                  1     3                       0.96900   -0.03290
    3 Stretch                  1     4                       1.06511    0.03624
    4 Bend                     2     1     3               103.97818   -0.00549
    5 Bend                     2     1     4               105.38417   -0.00147
    6 Bend                     3     1     4                90.02276   -0.02588

 Restricting large step in mode    6 eval= 4.8D-02 step= 5.4D-01 new= 3.0D-01
  no constraints, skipping    0.0000000000000000     
  no constraints, skipping    0.0000000000000000     
  no constraints, skipping    0.0000000000000000     
  no constraints, skipping    0.0000000000000000     
  no constraints, skipping    0.0000000000000000     

                                 NWChem DFT Module
                                 -----------------




 Summary of "ao basis" -> "cc-pvdz" (spherical)
 ------------------------------------------------------------------------------
       Tag                 Description            Shells   Functions and Types
 ---------------- ------------------------------  ------  ---------------------
 O                          cc-pvdz                  6       14   3s2p1d
 H                          cc-pvdz                  3        5   2s1p


  texas integral default override: limxmem =             50000000
  Caching 1-el integrals 

            General Information
            -------------------
          SCF calculation type: DFT
          Wavefunction type:  closed shell.
          No. of atoms     :     4
          No. of electrons :    10
           Alpha electrons :     5
            Beta electrons :     5
          Charge           :     1
          Spin multiplicity:     1
          Use of symmetry is: off; symmetry adaption is: off
          Maximum number of iterations: 500
          This is a Direct SCF calculation.
          AO basis - number of functions:    29
                     number of shells:    15
          Convergence on energy requested:  1.00D-06
          Convergence on density requested:  1.00D-05
          Convergence on gradient requested:  5.00D-04

              XC Information
              --------------
          PerdewBurkeErnzerhof Exchange Functional  1.000          
            Perdew 1991 LDA Correlation Functional  1.000 local    
           PerdewBurkeErnz. Correlation Functional  1.000 non-local

             Grid Information
             ----------------
          Grid used for XC integration:  medium    
          Radial quadrature: Mura-Knowles        
          Angular quadrature: Lebedev. 
          Tag              B.-S. Rad. Rad. Pts. Rad. Cut. Ang. Pts.
          ---              ---------- --------- --------- ---------
          O                   0.60       49           5.0       434
          H                   0.35       45           7.0       434
          Grid pruning is: on 
          Number of quadrature shells:   184
          Spatial weights used:  Erf1

          Convergence Information
          -----------------------
          Convergence aids based upon iterative change in 
          total energy or number of iterations. 
          Levelshifting, if invoked, occurs when the 
          HOMO/LUMO gap drops below (HL_TOL):  1.00D-02
          DIIS, if invoked, will attempt to extrapolate 
          using up to (NFOCK): 10 stored Fock matrices.

                    Damping( 0%)  Levelshifting(0.5)       DIIS
                  --------------- ------------------- ---------------
          dE  on:    start            ASAP                start   
          dE off:    2 iters        500 iters           500 iters 


      Screening Tolerance Information
      -------------------------------
          Density screening/tol_rho:  1.00D-10
          AO Gaussian exp screening on grid/accAOfunc:  14
          CD Gaussian exp screening on grid/accCDfunc:  20
          XC Gaussian exp screening on grid/accXCfunc:  20
          Schwarz screening/accCoul:  1.00D-08


 Loading old vectors from job with title :



   Time after variat. SCF:      1.2
   Time prior to 1st pass:      1.2

 Grid_pts file          = ./h3o-dat.gridpts.00
 Record size in doubles =  12289        No. of grid_pts per rec  =   3070
 Max. records in memory =      3        Max. recs in file   =   4694726


           Memory utilization after 1st SCF pass: 
           Heap Space remaining (MW):       13.07            13068426
          Stack Space remaining (MW):      134.22           134217404

   convergence    iter        energy       DeltaE   RMS-Dens  Diis-err    time
 ---------------- ----- ----------------- --------- --------- ---------  ------
 d= 0,ls=0.0,diis     1    -76.6121954324 -9.02D+01  7.21D-03  3.04D-02     1.3
 d= 0,ls=0.0,diis     2    -76.6163429084 -4.15D-03  1.12D-03  1.62D-03     1.4
 d= 0,ls=0.0,diis     3    -76.6164713425 -1.28D-04  4.35D-04  5.55D-04     1.5
 d= 0,ls=0.0,diis     4    -76.6165126280 -4.13D-05  1.53D-04  1.41D-04     1.5
 d= 0,ls=0.0,diis     5    -76.6165251413 -1.25D-05  9.98D-06  4.52D-07     1.6
 d= 0,ls=0.0,diis     6    -76.6165251819 -4.06D-08  1.14D-06  3.61D-09     1.6


         Total DFT energy =      -76.616525181935
      One electron energy =     -127.804865531369
           Coulomb energy =       46.903443036620
    Exchange-Corr. energy =       -9.291111451828
 Nuclear repulsion energy =       13.576008764643

 Numeric. integr. density =       10.000000248970

     Total iterative time =      0.4s



                       DFT Final Molecular Orbital Analysis
                       ------------------------------------

 Vector    1  Occ=2.000000D+00  E=-1.920847D+01
              MO Center=  8.4D-03,  5.5D-03, -9.0D-02, r^2= 1.5D-02
   Bfn.  Coefficient  Atom+Function         Bfn.  Coefficient  Atom+Function  
  ----- ------------  ---------------      ----- ------------  ---------------
     1      1.003692  1 O  s          

 Vector    2  Occ=2.000000D+00  E=-1.358209D+00
              MO Center=  1.3D-02,  4.4D-02,  6.7D-02, r^2= 5.0D-01
   Bfn.  Coefficient  Atom+Function         Bfn.  Coefficient  Atom+Function  
  ----- ------------  ---------------      ----- ------------  ---------------
     2      0.465948  1 O  s                  3      0.320545  1 O  s          
    25      0.170930  4 H  s                 20      0.161679  3 H  s          
    15      0.159823  2 H  s                  6      0.102410  1 O  pz         
    22      0.038033  3 H  px                18      0.037066  2 H  py         
    28     -0.032193  4 H  py                27     -0.026976  4 H  px         

 Vector    3  Occ=2.000000D+00  E=-8.665142D-01
              MO Center=  5.4D-02, -9.9D-02,  6.9D-02, r^2= 7.2D-01
   Bfn.  Coefficient  Atom+Function         Bfn.  Coefficient  Atom+Function  
  ----- ------------  ---------------      ----- ------------  ---------------
     5      0.519693  1 O  py                15     -0.347673  2 H  s          
     8      0.202522  1 O  py                25      0.193868  4 H  s          
    20      0.180548  3 H  s                  4     -0.142540  1 O  px         
     6     -0.062173  1 O  pz                 7     -0.055874  1 O  px         
    16     -0.051168  2 H  s                 18     -0.032428  2 H  py         

 Vector    4  Occ=2.000000D+00  E=-8.468816D-01
              MO Center= -4.2D-02,  1.6D-01,  2.8D-02, r^2= 7.1D-01
   Bfn.  Coefficient  Atom+Function         Bfn.  Coefficient  Atom+Function  
  ----- ------------  ---------------      ----- ------------  ---------------
     4      0.530278  1 O  px                20     -0.302514  3 H  s          
    25      0.299158  4 H  s                  7      0.222775  1 O  px         
     5      0.143756  1 O  py                 8      0.059819  1 O  py         
    21     -0.050022  3 H  s                 26      0.047688  4 H  s          
    28     -0.035714  4 H  py                22     -0.027138  3 H  px         

 Vector    5  Occ=2.000000D+00  E=-6.951454D-01
              MO Center=  6.2D-03, -5.3D-03, -1.9D-01, r^2= 5.9D-01
   Bfn.  Coefficient  Atom+Function         Bfn.  Coefficient  Atom+Function  
  ----- ------------  ---------------      ----- ------------  ---------------
     6      0.609894  1 O  pz                 9      0.376238  1 O  pz         
     3     -0.274832  1 O  s                  2     -0.154543  1 O  s          
    15      0.117823  2 H  s                 20      0.108703  3 H  s          
    25      0.105834  4 H  s                  5      0.071899  1 O  py         
     8      0.043826  1 O  py         

 Vector    6  Occ=0.000000D+00  E=-3.036686D-01
              MO Center= -4.4D-02,  8.7D-02,  3.9D-01, r^2= 2.6D+00
   Bfn.  Coefficient  Atom+Function         Bfn.  Coefficient  Atom+Function  
  ----- ------------  ---------------      ----- ------------  ---------------
     3      0.787771  1 O  s                 21     -0.473817  3 H  s          
    16     -0.450554  2 H  s                 26     -0.418249  4 H  s          
     2      0.244721  1 O  s                  6      0.241012  1 O  pz         
    15     -0.212553  2 H  s                 20     -0.210674  3 H  s          
     9      0.185662  1 O  pz                25     -0.171334  4 H  s          

 Vector    7  Occ=0.000000D+00  E=-2.164315D-01
              MO Center= -4.0D-01,  1.8D-01,  3.3D-01, r^2= 2.5D+00
   Bfn.  Coefficient  Atom+Function         Bfn.  Coefficient  Atom+Function  
  ----- ------------  ---------------      ----- ------------  ---------------
    21      1.056688  3 H  s                 16     -0.562135  2 H  s          
    26     -0.552168  4 H  s                  7      0.499440  1 O  px         
     4      0.437622  1 O  px                20      0.386311  3 H  s          
    25     -0.208787  4 H  s                 15     -0.194899  2 H  s          
     8     -0.127189  1 O  py                 5     -0.114536  1 O  py         

 Vector    8  Occ=0.000000D+00  E=-2.105863D-01
              MO Center=  4.8D-01,  2.5D-02,  3.4D-01, r^2= 2.5D+00
   Bfn.  Coefficient  Atom+Function         Bfn.  Coefficient  Atom+Function  
  ----- ------------  ---------------      ----- ------------  ---------------
    26     -0.979018  4 H  s                 16      0.919190  2 H  s          
     8      0.497501  1 O  py                 5      0.435213  1 O  py         
    25     -0.324141  4 H  s                 15      0.318087  2 H  s          
     7      0.128654  1 O  px                 4      0.109500  1 O  px         
     9     -0.070005  1 O  pz                 6     -0.059050  1 O  pz         

 Vector    9  Occ=0.000000D+00  E= 1.415875D-01
              MO Center= -1.6D-01,  3.4D-01,  2.0D-01, r^2= 2.7D+00
   Bfn.  Coefficient  Atom+Function         Bfn.  Coefficient  Atom+Function  
  ----- ------------  ---------------      ----- ------------  ---------------
    21      1.137150  3 H  s                 26     -1.090486  4 H  s          
    20     -0.900056  3 H  s                 25      0.854992  4 H  s          
     7     -0.184582  1 O  px                 4     -0.126336  1 O  px         
    17     -0.114227  2 H  px                10      0.077996  1 O  d -2       
     8     -0.070906  1 O  py                23     -0.067153  3 H  py         

 Vector   10  Occ=0.000000D+00  E= 1.586575D-01
              MO Center=  1.4D-01, -4.2D-01,  3.0D-01, r^2= 2.5D+00
   Bfn.  Coefficient  Atom+Function         Bfn.  Coefficient  Atom+Function  
  ----- ------------  ---------------      ----- ------------  ---------------
    16      1.281360  2 H  s                 15     -1.113513  2 H  s          
    21     -0.547102  3 H  s                 26     -0.480656  4 H  s          
    20      0.432105  3 H  s                 25      0.383819  4 H  s          
     8     -0.183892  1 O  py                 5     -0.161594  1 O  py         
    23     -0.094188  3 H  py                27      0.085452  4 H  px         

 Vector   11  Occ=0.000000D+00  E= 2.424224D-01
              MO Center=  1.4D-02,  3.2D-01,  2.6D-01, r^2= 2.4D+00
   Bfn.  Coefficient  Atom+Function         Bfn.  Coefficient  Atom+Function  
  ----- ------------  ---------------      ----- ------------  ---------------
    25      0.747610  4 H  s                 26     -0.682245  4 H  s          
    20      0.657232  3 H  s                 21     -0.594711  3 H  s          
     3      0.575197  1 O  s                 15      0.476037  2 H  s          
    16     -0.356030  2 H  s                  2     -0.331184  1 O  s          
     6     -0.328339  1 O  pz                 9      0.222352  1 O  pz         

 Vector   12  Occ=0.000000D+00  E= 4.704651D-01
              MO Center=  8.2D-04,  6.4D-03, -2.4D-02, r^2= 1.2D+00
   Bfn.  Coefficient  Atom+Function         Bfn.  Coefficient  Atom+Function  
  ----- ------------  ---------------      ----- ------------  ---------------
     9      1.072981  1 O  pz                 6     -0.789118  1 O  pz         
     3      0.466846  1 O  s                 25     -0.420735  4 H  s          
    20     -0.398956  3 H  s                 15     -0.369032  2 H  s          
    19      0.189301  2 H  pz                 2      0.156152  1 O  s          
    24      0.154106  3 H  pz                29      0.139329  4 H  pz         

 Vector   13  Occ=0.000000D+00  E= 5.549790D-01
              MO Center= -8.9D-03,  7.7D-02,  5.8D-02, r^2= 1.9D+00
   Bfn.  Coefficient  Atom+Function         Bfn.  Coefficient  Atom+Function  
  ----- ------------  ---------------      ----- ------------  ---------------
     8      1.425972  1 O  py                16      0.995958  2 H  s          
     5     -0.699249  1 O  py                26     -0.488611  4 H  s          
    21     -0.425463  3 H  s                  7     -0.384067  1 O  px         
    23      0.250968  3 H  py                28      0.221585  4 H  py         
     4      0.189856  1 O  px                18      0.184340  2 H  py         

 Vector   14  Occ=0.000000D+00  E= 5.608899D-01
              MO Center=  3.7D-02, -3.5D-02,  5.2D-02, r^2= 1.9D+00
   Bfn.  Coefficient  Atom+Function         Bfn.  Coefficient  Atom+Function  
  ----- ------------  ---------------      ----- ------------  ---------------
     7      1.441448  1 O  px                21      0.898626  3 H  s          
    26     -0.897227  4 H  s                  4     -0.740064  1 O  px         
     8      0.382220  1 O  py                17      0.204289  2 H  px         
     5     -0.196783  1 O  py                22      0.187829  3 H  px         
    27      0.176036  4 H  px                20      0.169404  3 H  s          

 Vector   15  Occ=0.000000D+00  E= 6.657770D-01
              MO Center=  5.1D-03, -5.2D-02,  1.2D-01, r^2= 1.4D+00
   Bfn.  Coefficient  Atom+Function         Bfn.  Coefficient  Atom+Function  
  ----- ------------  ---------------      ----- ------------  ---------------
     8      0.816855  1 O  py                27      0.443911  4 H  px         
    23     -0.347118  3 H  py                19      0.343177  2 H  pz         
    18      0.339125  2 H  py                22     -0.330912  3 H  px         
     7     -0.298235  1 O  px                15      0.281408  2 H  s          
    16      0.266281  2 H  s                 24     -0.204219  3 H  pz         

 Vector   16  Occ=0.000000D+00  E= 7.234035D-01
              MO Center= -1.7D-04,  2.4D-01,  1.1D-01, r^2= 1.3D+00
   Bfn.  Coefficient  Atom+Function         Bfn.  Coefficient  Atom+Function  
  ----- ------------  ---------------      ----- ------------  ---------------
     7      0.680980  1 O  px                29     -0.476508  4 H  pz         
    17     -0.463171  2 H  px                24      0.417946  3 H  pz         
    28      0.283353  4 H  py                 8      0.267232  1 O  py         
    23     -0.262366  3 H  py                25     -0.250523  4 H  s          
    20      0.209965  3 H  s                 26     -0.209088  4 H  s          

 Vector   17  Occ=0.000000D+00  E= 9.364160D-01
              MO Center=  7.1D-03, -7.7D-03, -1.1D-01, r^2= 1.5D+00
   Bfn.  Coefficient  Atom+Function         Bfn.  Coefficient  Atom+Function  
  ----- ------------  ---------------      ----- ------------  ---------------
     3      1.515911  1 O  s                  2     -0.978643  1 O  s          
     9     -0.536112  1 O  pz                19      0.475909  2 H  pz         
    24      0.453741  3 H  pz                29      0.452491  4 H  pz         
     1     -0.421785  1 O  s                 16     -0.251870  2 H  s          
    26     -0.249304  4 H  s                 21     -0.234759  3 H  s          

 Vector   18  Occ=0.000000D+00  E= 1.104696D+00
              MO Center=  4.4D-03,  2.0D-02,  3.2D-01, r^2= 1.4D+00
   Bfn.  Coefficient  Atom+Function         Bfn.  Coefficient  Atom+Function  
  ----- ------------  ---------------      ----- ------------  ---------------
    17      0.658071  2 H  px                23     -0.581294  3 H  py         
    27     -0.401720  4 H  px                28      0.403181  4 H  py         
    18      0.184561  2 H  py                 7     -0.181013  1 O  px         
    24      0.158739  3 H  pz                22     -0.113475  3 H  px         
    29     -0.102659  4 H  pz                20     -0.084884  3 H  s          

 Vector   19  Occ=0.000000D+00  E= 1.316406D+00
              MO Center=  4.6D-02,  1.4D-02,  1.9D-01, r^2= 1.5D+00
   Bfn.  Coefficient  Atom+Function         Bfn.  Coefficient  Atom+Function  
  ----- ------------  ---------------      ----- ------------  ---------------
     8      1.249259  1 O  py                19     -0.632727  2 H  pz         
    15      0.623432  2 H  s                 24      0.487220  3 H  pz         
     7     -0.453265  1 O  px                23     -0.454874  3 H  py         
    27      0.440140  4 H  px                28     -0.398267  4 H  py         
    29      0.398961  4 H  pz                20     -0.356843  3 H  s          

 Vector   20  Occ=0.000000D+00  E= 1.345087D+00
              MO Center= -3.4D-02,  1.7D-01,  1.8D-01, r^2= 1.5D+00
   Bfn.  Coefficient  Atom+Function         Bfn.  Coefficient  Atom+Function  
  ----- ------------  ---------------      ----- ------------  ---------------
     7      1.143275  1 O  px                17     -0.611153  2 H  px         
    29      0.590749  4 H  pz                23     -0.526453  3 H  py         
    24     -0.509732  3 H  pz                25     -0.504832  4 H  s          
    20      0.430484  3 H  s                  8      0.413351  1 O  py         
    27     -0.323304  4 H  px                28      0.319951  4 H  py         

 Vector   21  Occ=0.000000D+00  E= 1.462829D+00
              MO Center= -5.5D-02, -3.8D-02,  2.6D-01, r^2= 1.2D+00
   Bfn.  Coefficient  Atom+Function         Bfn.  Coefficient  Atom+Function  
  ----- ------------  ---------------      ----- ------------  ---------------
     3      1.699433  1 O  s                  2     -1.487718  1 O  s          
     9      0.774558  1 O  pz                 1     -0.655467  1 O  s          
    19     -0.494500  2 H  pz                25     -0.480949  4 H  s          
    20     -0.464532  3 H  s                 15     -0.370043  2 H  s          
    24     -0.340853  3 H  pz                 6     -0.307172  1 O  pz         

 Vector   22  Occ=0.000000D+00  E= 1.564668D+00
              MO Center= -3.5D-01,  3.4D-02,  2.8D-01, r^2= 1.3D+00
   Bfn.  Coefficient  Atom+Function         Bfn.  Coefficient  Atom+Function  
  ----- ------------  ---------------      ----- ------------  ---------------
    22      0.900383  3 H  px                 4      0.589876  1 O  px         
    18     -0.507351  2 H  py                21      0.489997  3 H  s          
    19      0.365093  2 H  pz                24     -0.324668  3 H  pz         
    16     -0.307735  2 H  s                 27      0.281838  4 H  px         
     5     -0.275475  1 O  py                23     -0.226986  3 H  py         

 Vector   23  Occ=0.000000D+00  E= 1.587391D+00
              MO Center=  4.2D-01,  2.2D-01,  2.3D-01, r^2= 1.2D+00
   Bfn.  Coefficient  Atom+Function         Bfn.  Coefficient  Atom+Function  
  ----- ------------  ---------------      ----- ------------  ---------------
    28      0.689277  4 H  py                27      0.638819  4 H  px         
     5      0.622626  1 O  py                18      0.624645  2 H  py         
    26     -0.445757  4 H  s                 16      0.378639  2 H  s          
    19     -0.331113  2 H  pz                29      0.287649  4 H  pz         
     3     -0.262088  1 O  s                  4      0.243474  1 O  px         

 Vector   24  Occ=0.000000D+00  E= 2.014830D+00
              MO Center=  1.7D-02,  4.2D-02,  2.2D-01, r^2= 1.5D+00
   Bfn.  Coefficient  Atom+Function         Bfn.  Coefficient  Atom+Function  
  ----- ------------  ---------------      ----- ------------  ---------------
     3      3.705768  1 O  s                  9      1.430696  1 O  pz         
    25     -1.195805  4 H  s                 15     -1.179313  2 H  s          
    20     -1.162565  3 H  s                 18     -0.949141  2 H  py         
    22     -0.880460  3 H  px                28      0.762649  4 H  py         
     2     -0.631659  1 O  s                 27      0.568087  4 H  px         

 Vector   25  Occ=0.000000D+00  E= 2.556133D+00
              MO Center= -7.5D-03,  6.6D-02, -3.5D-02, r^2= 6.7D-01
   Bfn.  Coefficient  Atom+Function         Bfn.  Coefficient  Atom+Function  
  ----- ------------  ---------------      ----- ------------  ---------------
    11      0.665086  1 O  d -1              10     -0.566399  1 O  d -2       
    14     -0.508663  1 O  d  2              23     -0.413987  3 H  py         
     3     -0.401578  1 O  s                 29     -0.328038  4 H  pz         
    12      0.298464  1 O  d  0              13     -0.228765  1 O  d  1       
     8      0.226558  1 O  py                28     -0.221374  4 H  py         

 Vector   26  Occ=0.000000D+00  E= 2.566276D+00
              MO Center=  2.3D-02,  4.4D-04, -2.6D-02, r^2= 6.8D-01
   Bfn.  Coefficient  Atom+Function         Bfn.  Coefficient  Atom+Function  
  ----- ------------  ---------------      ----- ------------  ---------------
    13      0.785031  1 O  d  1              14     -0.631682  1 O  d  2       
    17      0.386206  2 H  px                 7     -0.324944  1 O  px         
    10      0.323661  1 O  d -2              24     -0.292794  3 H  pz         
    28     -0.289496  4 H  py                 3     -0.270393  1 O  s          
    12      0.208378  1 O  d  0              27      0.191221  4 H  px         

 Vector   27  Occ=0.000000D+00  E= 2.683581D+00
              MO Center=  1.3D-02,  9.0D-03, -1.9D-03, r^2= 7.9D-01
   Bfn.  Coefficient  Atom+Function         Bfn.  Coefficient  Atom+Function  
  ----- ------------  ---------------      ----- ------------  ---------------
     3      1.967828  1 O  s                 12     -0.984454  1 O  d  0       
    25     -0.704821  4 H  s                 20     -0.681082  3 H  s          
    15     -0.568663  2 H  s                 19      0.484751  2 H  pz         
    22     -0.433095  3 H  px                27      0.398785  4 H  px         
    14     -0.355136  1 O  d  2              24      0.334725  3 H  pz         

 Vector   28  Occ=0.000000D+00  E= 3.152099D+00
              MO Center=  7.0D-03, -5.1D-02, -5.0D-02, r^2= 8.6D-01
   Bfn.  Coefficient  Atom+Function         Bfn.  Coefficient  Atom+Function  
  ----- ------------  ---------------      ----- ------------  ---------------
     8      1.110568  1 O  py                15      1.107093  2 H  s          
    11      0.936309  1 O  d -1              18      0.721048  2 H  py         
    20     -0.716028  3 H  s                 14      0.657509  1 O  d  2       
     7     -0.575846  1 O  px                22     -0.506590  3 H  px         
    13      0.495021  1 O  d  1              19     -0.475335  2 H  pz         

 Vector   29  Occ=0.000000D+00  E= 3.197945D+00
              MO Center=  1.1D-02,  7.1D-02, -5.9D-02, r^2= 8.6D-01
   Bfn.  Coefficient  Atom+Function         Bfn.  Coefficient  Atom+Function  
  ----- ------------  ---------------      ----- ------------  ---------------
    25     -1.087788  4 H  s                  7      1.017552  1 O  px         
    10      0.991399  1 O  d -2              20      0.777837  3 H  s          
    28      0.676779  4 H  py                13     -0.649927  1 O  d  1       
     8      0.566835  1 O  py                22      0.561896  3 H  px         
    27      0.495845  4 H  px                14     -0.399877  1 O  d  2       


 center of mass
 --------------
 x =   0.01532461 y =   0.03574065 z =  -0.04837272

 moments of inertia (a.u.)
 ------------------
           6.368624974580           0.264199372151           0.067300344342
           0.264199372151           5.933627975313           0.329806713491
           0.067300344342           0.329806713491           9.121545147932

     Multipole analysis of the density
     ---------------------------------

     L   x y z        total         alpha         beta         nuclear
     -   - - -        -----         -----         ----         -------
     0   0 0 0      1.000000     -5.000000     -5.000000     11.000000

     1   1 0 0      0.011554     -0.076065     -0.076065      0.163684
     1   0 1 0      0.203318     -0.194909     -0.194909      0.593136
     1   0 0 1      0.851488      0.211154      0.211154      0.429181

     2   2 0 0     -2.226325     -3.269154     -3.269154      4.311982
     2   1 1 0     -0.155870      0.048619      0.048619     -0.253109
     2   1 0 1     -0.024589      0.017389      0.017389     -0.059368
     2   0 2 0     -1.957104     -3.360770     -3.360770      4.764437
     2   0 1 1     -0.215063      0.065472      0.065472     -0.346006
     2   0 0 2     -4.108737     -2.751039     -2.751039      1.393341

 Line search: 
     step= 1.00 grad=-1.8D-02 hess= 8.3D-03 energy=    -76.616525 mode=downhill
 new step= 1.10                   predicted energy=    -76.616611
  no constraints, skipping    0.0000000000000000     
  no constraints, skipping    0.0000000000000000     
  no constraints, skipping    0.0000000000000000     
  no constraints, skipping    0.0000000000000000     
  no constraints, skipping    0.0000000000000000     

          --------
          Step   1
          --------


                         Geometry "geometry" -> "geometry"
                         ---------------------------------

 Output coordinates in angstroms (scale by  1.889725989 to convert to a.u.)

  No.       Tag          Charge          X              Y              Z
 ---- ---------------- ---------- -------------- -------------- --------------
    1 O                    8.0000     0.00965993     0.01001096    -0.08640456
    2 H                    1.0000     0.28851821    -0.81601990     0.43410855
    3 H                    1.0000    -0.87927981     0.33722666     0.30052673
    4 H                    1.0000     0.60865327     0.74438646     0.21047920

      Atomic Mass 
      ----------- 

      O                 15.994910
      H                  1.007825


 Effective nuclear repulsion energy (a.u.)      13.5621890772

            Nuclear Dipole moment (a.u.) 
            ----------------------------
        X                 Y               Z
 ---------------- ---------------- ----------------
     0.1798473337     0.6532421925     0.4797598203


                                 NWChem DFT Module
                                 -----------------




 Summary of "ao basis" -> "cc-pvdz" (spherical)
 ------------------------------------------------------------------------------
       Tag                 Description            Shells   Functions and Types
 ---------------- ------------------------------  ------  ---------------------
 O                          cc-pvdz                  6       14   3s2p1d
 H                          cc-pvdz                  3        5   2s1p


  texas integral default override: limxmem =             50000000
  Caching 1-el integrals 

            General Information
            -------------------
          SCF calculation type: DFT
          Wavefunction type:  closed shell.
          No. of atoms     :     4
          No. of electrons :    10
           Alpha electrons :     5
            Beta electrons :     5
          Charge           :     1
          Spin multiplicity:     1
          Use of symmetry is: off; symmetry adaption is: off
          Maximum number of iterations: 500
          This is a Direct SCF calculation.
          AO basis - number of functions:    29
                     number of shells:    15
          Convergence on energy requested:  1.00D-06
          Convergence on density requested:  1.00D-05
          Convergence on gradient requested:  5.00D-04

              XC Information
              --------------
          PerdewBurkeErnzerhof Exchange Functional  1.000          
            Perdew 1991 LDA Correlation Functional  1.000 local    
           PerdewBurkeErnz. Correlation Functional  1.000 non-local

             Grid Information
             ----------------
          Grid used for XC integration:  medium    
          Radial quadrature: Mura-Knowles        
          Angular quadrature: Lebedev. 
          Tag              B.-S. Rad. Rad. Pts. Rad. Cut. Ang. Pts.
          ---              ---------- --------- --------- ---------
          O                   0.60       49           5.0       434
          H                   0.35       45           7.0       434
          Grid pruning is: on 
          Number of quadrature shells:   184
          Spatial weights used:  Erf1

          Convergence Information
          -----------------------
          Convergence aids based upon iterative change in 
          total energy or number of iterations. 
          Levelshifting, if invoked, occurs when the 
          HOMO/LUMO gap drops below (HL_TOL):  1.00D-02
          DIIS, if invoked, will attempt to extrapolate 
          using up to (NFOCK): 10 stored Fock matrices.

                    Damping( 0%)  Levelshifting(0.5)       DIIS
                  --------------- ------------------- ---------------
          dE  on:    start            ASAP                start   
          dE off:    2 iters        500 iters           500 iters 


      Screening Tolerance Information
      -------------------------------
          Density screening/tol_rho:  1.00D-10
          AO Gaussian exp screening on grid/accAOfunc:  14
          CD Gaussian exp screening on grid/accCDfunc:  20
          XC Gaussian exp screening on grid/accXCfunc:  20
          Schwarz screening/accCoul:  1.00D-08


 Loading old vectors from job with title :



   Time after variat. SCF:      1.8
   Time prior to 1st pass:      1.8

 Grid_pts file          = ./h3o-dat.gridpts.00
 Record size in doubles =  12289        No. of grid_pts per rec  =   3070
 Max. records in memory =      3        Max. recs in file   =   4694726


           Memory utilization after 1st SCF pass: 
           Heap Space remaining (MW):       13.07            13068426
          Stack Space remaining (MW):      134.22           134217404

   convergence    iter        energy       DeltaE   RMS-Dens  Diis-err    time
 ---------------- ----- ----------------- --------- --------- ---------  ------
 d= 0,ls=0.0,diis     1    -76.6165731305 -9.02D+01  7.34D-04  3.13D-04     1.9
 d= 0,ls=0.0,diis     2    -76.6166149738 -4.18D-05  1.11D-04  1.60D-05     2.0
 d= 0,ls=0.0,diis     3    -76.6166163871 -1.41D-06  3.84D-05  3.94D-06     2.0
 d= 0,ls=0.0,diis     4    -76.6166166972 -3.10D-07  1.30D-05  1.01D-06     2.1
 d= 0,ls=0.0,diis     5    -76.6166167856 -8.83D-08  1.10D-06  6.14D-09     2.1


         Total DFT energy =      -76.616616785551
      One electron energy =     -127.786386813503
           Coulomb energy =       46.897805319844
    Exchange-Corr. energy =       -9.290224369112
 Nuclear repulsion energy =       13.562189077220

 Numeric. integr. density =       10.000001049184

     Total iterative time =      0.4s



                       DFT Final Molecular Orbital Analysis
                       ------------------------------------

 Vector    1  Occ=2.000000D+00  E=-1.920771D+01
              MO Center=  9.7D-03,  1.0D-02, -8.6D-02, r^2= 1.5D-02
   Bfn.  Coefficient  Atom+Function         Bfn.  Coefficient  Atom+Function  
  ----- ------------  ---------------      ----- ------------  ---------------
     1      1.003689  1 O  s          

 Vector    2  Occ=2.000000D+00  E=-1.356768D+00
              MO Center=  1.7D-02,  4.9D-02,  6.9D-02, r^2= 5.0D-01
   Bfn.  Coefficient  Atom+Function         Bfn.  Coefficient  Atom+Function  
  ----- ------------  ---------------      ----- ------------  ---------------
     2      0.466057  1 O  s                  3      0.322530  1 O  s          
    25      0.173521  4 H  s                 20      0.158627  3 H  s          
    15      0.157636  2 H  s                  6      0.100926  1 O  pz         
    22      0.037724  3 H  px                18      0.036748  2 H  py         
    28     -0.032294  4 H  py                27     -0.027409  4 H  px         

 Vector    3  Occ=2.000000D+00  E=-8.649695D-01
              MO Center=  6.7D-02, -9.4D-02,  7.0D-02, r^2= 7.2D-01
   Bfn.  Coefficient  Atom+Function         Bfn.  Coefficient  Atom+Function  
  ----- ------------  ---------------      ----- ------------  ---------------
     5      0.525800  1 O  py                15     -0.346763  2 H  s          
    25      0.206947  4 H  s                  8      0.205872  1 O  py         
    20      0.164866  3 H  s                  4     -0.118034  1 O  px         
     6     -0.063184  1 O  pz                16     -0.051653  2 H  s          
     7     -0.046685  1 O  px                18     -0.032306  2 H  py         

 Vector    4  Occ=2.000000D+00  E=-8.481496D-01
              MO Center= -5.6D-02,  1.6D-01,  3.2D-02, r^2= 7.1D-01
   Bfn.  Coefficient  Atom+Function         Bfn.  Coefficient  Atom+Function  
  ----- ------------  ---------------      ----- ------------  ---------------
     4      0.535532  1 O  px                20     -0.310123  3 H  s          
    25      0.291651  4 H  s                  7      0.223848  1 O  px         
     5      0.120120  1 O  py                21     -0.051139  3 H  s          
     8      0.049325  1 O  py                26      0.045421  4 H  s          
    28     -0.035720  4 H  py                22     -0.028581  3 H  px         

 Vector    5  Occ=2.000000D+00  E=-6.933732D-01
              MO Center=  7.7D-03, -9.2D-04, -1.8D-01, r^2= 5.9D-01
   Bfn.  Coefficient  Atom+Function         Bfn.  Coefficient  Atom+Function  
  ----- ------------  ---------------      ----- ------------  ---------------
     6      0.611251  1 O  pz                 9      0.378806  1 O  pz         
     3     -0.270412  1 O  s                  2     -0.152563  1 O  s          
    15      0.115557  2 H  s                 20      0.107742  3 H  s          
    25      0.103870  4 H  s                  5      0.072067  1 O  py         
     8      0.044076  1 O  py                29      0.025060  4 H  pz         

 Vector    6  Occ=0.000000D+00  E=-3.039233D-01
              MO Center= -6.9D-02,  6.2D-02,  3.9D-01, r^2= 2.6D+00
[...]
   247     -3.532459  3 H  px               157     -3.290646  2 H  py         

 Vector  410  Occ=0.000000D+00  E= 4.067509D+01
              MO Center=  1.9D-01, -2.8D-01,  2.9D-01, r^2= 8.8D-01
   Bfn.  Coefficient  Atom+Function         Bfn.  Coefficient  Atom+Function  
  ----- ------------  ---------------      ----- ------------  ---------------
    15     21.134339  1 O  py               144     20.339476  2 H  s          
   143     18.608949  2 H  s                157     17.178721  2 H  py         
    18     15.297274  1 O  py               326    -11.832494  4 H  s          
   325    -10.826039  4 H  s                235     -8.508291  3 H  s          
   339      8.425329  4 H  py               142     -8.327243  2 H  s          

 Vector  411  Occ=0.000000D+00  E= 4.067525D+01
              MO Center= -1.8D-01,  4.3D-01,  2.0D-01, r^2= 8.8D-01
   Bfn.  Coefficient  Atom+Function         Bfn.  Coefficient  Atom+Function  
  ----- ------------  ---------------      ----- ------------  ---------------
    14     21.332619  1 O  px               235     18.574882  3 H  s          
   234     16.994838  3 H  s                247     16.699105  3 H  px         
   326    -16.655219  4 H  s                 17     15.441831  1 O  px         
   325    -15.238289  4 H  s                339     11.665044  4 H  py         
   338     10.831127  4 H  px                36      7.779510  1 O  d -2       

 Vector  412  Occ=0.000000D+00  E= 1.055428D+02
              MO Center=  2.4D-03,  3.7D-02, -5.3D-03, r^2= 1.0D-01
   Bfn.  Coefficient  Atom+Function         Bfn.  Coefficient  Atom+Function  
  ----- ------------  ---------------      ----- ------------  ---------------
     2     30.730917  1 O  s                  1     27.548972  1 O  s          
     3      7.864195  1 O  s                  4     -7.806828  1 O  s          
     7     -5.258190  1 O  s                  5     -2.538057  1 O  s          
    43     -2.071097  1 O  d  0               6      2.030467  1 O  s          
   144      1.997475  2 H  s                235      1.995315  3 H  s          


 center of mass
 --------------
 x =   0.00652355 y =   0.08416841 z =   0.08397549

 moments of inertia (a.u.)
 ------------------
           5.569430868607           0.011452958145           0.079683270927
           0.011452958145           5.648585276722           0.564651381160
           0.079683270927           0.564651381160           9.514987704271

     Multipole analysis of the density
     ---------------------------------

     L   x y z        total         alpha         beta         nuclear
     -   - - -        -----         -----         ----         -------
     0   0 0 0      1.000000     -5.000000     -5.000000     11.000000

     1   1 0 0      0.019335     -0.033085     -0.033085      0.085505
     1   0 1 0      0.175022     -0.424146     -0.424146      1.023315
     1   0 0 1      0.718895     -0.442961     -0.442961      1.604816

     2   2 0 0     -1.893914     -3.327181     -3.327181      4.760449
     2   1 1 0     -0.005278     -0.000788     -0.000788     -0.003702
     2   1 0 1     -0.046405      0.011113      0.011113     -0.068631
     2   0 2 0     -1.923570     -3.348991     -3.348991      4.774413
     2   0 1 1     -0.301563      0.061940      0.061940     -0.425442
     2   0 0 2     -4.363711     -2.670818     -2.670818      0.977925

 Line search: 
     step= 1.00 grad=-2.4D-07 hess= 3.5D-07 energy=    -76.660829 mode=accept  
 new step= 1.00                   predicted energy=    -76.660829
  no constraints, skipping    0.0000000000000000     
  no constraints, skipping    0.0000000000000000     
  no constraints, skipping    0.0000000000000000     
  no constraints, skipping    0.0000000000000000     

          --------
          Step   1
          --------


                         Geometry "geometry" -> "geometry"
                         ---------------------------------

 Output coordinates in angstroms (scale by  1.889725989 to convert to a.u.)

  No.       Tag          Charge          X              Y              Z
 ---- ---------------- ---------- -------------- -------------- --------------
    1 O                    8.0000     0.00252794     0.03798725    -0.00135396
    2 H                    1.0000     0.27505613    -0.81672033     0.40947432
    3 H                    1.0000    -0.90799023     0.30069341     0.27350109
    4 H                    1.0000     0.65795775     0.75364385     0.17708846

      Atomic Mass 
      ----------- 

      O                 15.994910
      H                  1.007825


 Effective nuclear repulsion energy (a.u.)      13.8435085487

            Nuclear Dipole moment (a.u.) 
            ----------------------------
        X                 Y               Z
 ---------------- ---------------- ----------------
     0.0855047944     1.0233148804     1.6048161658


                                 NWChem DFT Module
                                 -----------------




 Summary of "ao basis" -> "cc-pv6z" (spherical)
 ------------------------------------------------------------------------------
       Tag                 Description            Shells   Functions and Types
 ---------------- ------------------------------  ------  ---------------------
 O                          cc-pv6z                 28      140   7s6p5d4f3g2h1i
 H                          cc-pv6z                 21       91   6s5p4d3f2g1h



  The DFT is already converged 

         Total DFT energy =    -76.660829423667


            General Information
            -------------------
          SCF calculation type: DFT
          Wavefunction type:  closed shell.
          No. of atoms     :     4
          No. of electrons :    10
           Alpha electrons :     5
            Beta electrons :     5
          Charge           :     1
          Spin multiplicity:     1
          Use of symmetry is: off; symmetry adaption is: off
          Maximum number of iterations: 500
          This is a Direct SCF calculation.
          AO basis - number of functions:   413
                     number of shells:    91
          Convergence on energy requested:  1.00D-06
          Convergence on density requested:  1.00D-05
          Convergence on gradient requested:  5.00D-04

              XC Information
              --------------
          PerdewBurkeErnzerhof Exchange Functional  1.000          
            Perdew 1991 LDA Correlation Functional  1.000 local    
           PerdewBurkeErnz. Correlation Functional  1.000 non-local

             Grid Information
             ----------------
          Grid used for XC integration:  medium    
          Radial quadrature: Mura-Knowles        
          Angular quadrature: Lebedev. 
          Tag              B.-S. Rad. Rad. Pts. Rad. Cut. Ang. Pts.
          ---              ---------- --------- --------- ---------
          O                   0.60       49           7.0       434
          H                   0.35       45           8.0       434
          Grid pruning is: on 
          Number of quadrature shells:   184
          Spatial weights used:  Erf1

          Convergence Information
          -----------------------
          Convergence aids based upon iterative change in 
          total energy or number of iterations. 
          Levelshifting, if invoked, occurs when the 
          HOMO/LUMO gap drops below (HL_TOL):  1.00D-02
          DIIS, if invoked, will attempt to extrapolate 
          using up to (NFOCK): 10 stored Fock matrices.

                    Damping( 0%)  Levelshifting(0.5)       DIIS
                  --------------- ------------------- ---------------
          dE  on:    start            ASAP                start   
          dE off:    2 iters        500 iters           500 iters 


      Screening Tolerance Information
      -------------------------------
          Density screening/tol_rho:  1.00D-10
          AO Gaussian exp screening on grid/accAOfunc:  14
          CD Gaussian exp screening on grid/accCDfunc:  20
          XC Gaussian exp screening on grid/accXCfunc:  20
          Schwarz screening/accCoul:  1.00D-08

  texas integral default override: limxmem =             50000000
  texas integral default override: limxmem =             50000000


                            NWChem DFT Gradient Module
                            --------------------------



  charge          =   1.00
  wavefunction    = closed shell

  texas integral default override: limxmem =             50000000
  texas integral default override: limxmem =             50000000


                         DFT ENERGY GRADIENTS

    atom               coordinates                        gradient
                 x          y          z           x          y          z
   1 O       0.004777   0.071786  -0.002559    0.000007  -0.000007   0.000037
   2 H       0.519781  -1.543378   0.773794   -0.000007   0.000023  -0.000017
   3 H      -1.715853   0.568228   0.516842    0.000015  -0.000002  -0.000011
   4 H       1.243360   1.424180   0.334649   -0.000015  -0.000015  -0.000008

                 ----------------------------------------
                 |  Time  |  1-e(secs)   |  2-e(secs)   |
                 ----------------------------------------
                 |  CPU   |       0.07   |      25.96   |
                 ----------------------------------------
                 |  WALL  |       0.07   |      34.27   |
                 ----------------------------------------
  no constraints, skipping    0.0000000000000000     

  Step       Energy      Delta E   Gmax     Grms     Xrms     Xmax   Walltime
  ---- ---------------- -------- -------- -------- -------- -------- --------
@    1     -76.66082942  1.1D-07  0.00003  0.00002  0.00043  0.00090   2620.6
                                     ok       ok       ok       ok  



                                Z-matrix (autoz)
                                -------- 

 Units are Angstrom for bonds and degrees for angles

      Type          Name      I     J     K     L     M      Value     Gradient
      ----------- --------  ----- ----- ----- ----- ----- ---------- ----------
    1 Stretch                  1     2                       0.98670   -0.00003
    2 Stretch                  1     3                       0.98671   -0.00002
    3 Stretch                  1     4                       0.98671   -0.00002
    4 Bend                     2     1     3               111.68600    0.00001
    5 Bend                     2     1     4               111.68510    0.00001
    6 Bend                     3     1     4               111.68370    0.00000


      ----------------------
      Optimization converged
      ----------------------


  Step       Energy      Delta E   Gmax     Grms     Xrms     Xmax   Walltime
  ---- ---------------- -------- -------- -------- -------- -------- --------
@    1     -76.66082942  1.1D-07  0.00003  0.00002  0.00043  0.00090   2620.6
                                     ok       ok       ok       ok  



                                Z-matrix (autoz)
                                -------- 

 Units are Angstrom for bonds and degrees for angles

      Type          Name      I     J     K     L     M      Value     Gradient
      ----------- --------  ----- ----- ----- ----- ----- ---------- ----------
    1 Stretch                  1     2                       0.98670   -0.00003
    2 Stretch                  1     3                       0.98671   -0.00002
    3 Stretch                  1     4                       0.98671   -0.00002
    4 Bend                     2     1     3               111.68600    0.00001
    5 Bend                     2     1     4               111.68510    0.00001
    6 Bend                     3     1     4               111.68370    0.00000



                         Geometry "geometry" -> "geometry"
                         ---------------------------------

 Output coordinates in angstroms (scale by  1.889725989 to convert to a.u.)

  No.       Tag          Charge          X              Y              Z
 ---- ---------------- ---------- -------------- -------------- --------------
    1 O                    8.0000     0.00252794     0.03798725    -0.00135396
    2 H                    1.0000     0.27505613    -0.81672033     0.40947432
    3 H                    1.0000    -0.90799023     0.30069341     0.27350109
    4 H                    1.0000     0.65795775     0.75364385     0.17708846

      Atomic Mass 
      ----------- 

      O                 15.994910
      H                  1.007825


 Effective nuclear repulsion energy (a.u.)      13.8435085487

            Nuclear Dipole moment (a.u.) 
            ----------------------------
        X                 Y               Z
 ---------------- ---------------- ----------------
     0.0855047944     1.0233148804     1.6048161658


                Final and change from initial internal coordinates
                --------------------------------------------------



                                Z-matrix (autoz)
                                -------- 

 Units are Angstrom for bonds and degrees for angles

      Type          Name      I     J     K     L     M      Value       Change
      ----------- --------  ----- ----- ----- ----- ----- ---------- ----------
    1 Stretch                  1     2                       0.98670   -0.00013
    2 Stretch                  1     3                       0.98671   -0.00011
    3 Stretch                  1     4                       0.98671   -0.00011
    4 Bend                     2     1     3               111.68600   -0.03776
    5 Bend                     2     1     4               111.68510   -0.03472
    6 Bend                     3     1     4               111.68370   -0.03943

 ==============================================================================
                                internuclear distances
 ------------------------------------------------------------------------------
       center one      |      center two      | atomic units |  angstroms
 ------------------------------------------------------------------------------
    2 H                |   1 O                |     1.86459  |     0.98670
    3 H                |   1 O                |     1.86462  |     0.98671
    4 H                |   1 O                |     1.86461  |     0.98671
 ------------------------------------------------------------------------------
                         number of included internuclear distances:          3
 ==============================================================================



 ==============================================================================
                                 internuclear angles
 ------------------------------------------------------------------------------
        center 1       |       center 2       |       center 3       |  degrees
 ------------------------------------------------------------------------------
    2 H                |   1 O                |   3 H                |   111.69
    2 H                |   1 O                |   4 H                |   111.69
    3 H                |   1 O                |   4 H                |   111.68
 ------------------------------------------------------------------------------
                            number of included internuclear angles:          3
 ==============================================================================




 Task  times  cpu:     2438.3s     wall:     2468.1s


                                NWChem Input Module
                                -------------------


 Summary of allocated global arrays
-----------------------------------
  No active global arrays


MA_summarize_allocated_blocks: starting scan ...
MA_summarize_allocated_blocks: scan completed: 0 heap blocks, 0 stack blocks
MA usage statistics:

	allocation statistics:
					      heap	     stack
					      ----	     -----
	current number of blocks	         0	         0
	maximum number of blocks	        23	        54
	current total bytes		         0	         0
	maximum total bytes		    387000	 572498712
	maximum total K-bytes		       387	    572499
	maximum total M-bytes		         1	       573


                                     CITATION
                                     --------
                Please cite the following reference when publishing
                           results obtained with NWChem:

          E. Apra, E. J. Bylaska, W. A. de Jong, N. Govind, K. Kowalski,
       T. P. Straatsma, M. Valiev, H. J. J. van Dam, Y. Alexeev, J. Anchell,
       V. Anisimov, F. W. Aquino, R. Atta-Fynn, J. Autschbach, N. P. Bauman,
     J. C. Becca, D. E. Bernholdt, K. Bhaskaran-Nair, S. Bogatko, P. Borowski,
         J. Boschen, J. Brabec, A. Bruner, E. Cauet, Y. Chen, G. N. Chuev,
      C. J. Cramer, J. Daily, M. J. O. Deegan, T. H. Dunning Jr., M. Dupuis,
   K. G. Dyall, G. I. Fann, S. A. Fischer, A. Fonari, H. Fruchtl, L. Gagliardi,
      J. Garza, N. Gawande, S. Ghosh, K. Glaesemann, A. W. Gotz, J. Hammond,
       V. Helms, E. D. Hermes, K. Hirao, S. Hirata, M. Jacquelin, L. Jensen,
   B. G. Johnson, H. Jonsson, R. A. Kendall, M. Klemm, R. Kobayashi, V. Konkov,
      S. Krishnamoorthy, M. Krishnan, Z. Lin, R. D. Lins, R. J. Littlefield,
      A. J. Logsdail, K. Lopata, W. Ma, A. V. Marenich, J. Martin del Campo,
   D. Mejia-Rodriguez, J. E. Moore, J. M. Mullin, T. Nakajima, D. R. Nascimento,
    J. A. Nichols, P. J. Nichols, J. Nieplocha, A. Otero-de-la-Roza, B. Palmer,
    A. Panyala, T. Pirojsirikul, B. Peng, R. Peverati, J. Pittner, L. Pollack,
   R. M. Richard, P. Sadayappan, G. C. Schatz, W. A. Shelton, D. W. Silverstein,
   D. M. A. Smith, T. A. Soares, D. Song, M. Swart, H. L. Taylor, G. S. Thomas,
            V. Tipparaju, D. G. Truhlar, K. Tsemekhman, T. Van Voorhis,
      A. Vazquez-Mayagoitia, P. Verma, O. Villa, A. Vishnu, K. D. Vogiatzis,
        D. Wang, J. H. Weare, M. J. Williamson, T. L. Windus, K. Wolinski,
        A. T. Wong, Q. Wu, C. Yang, Q. Yu, M. Zacharias, Z. Zhang, Y. Zhao,
                                and R. J. Harrison
                        "NWChem: Past, present, and future
                         J. Chem. Phys. 152, 184102 (2020)
                               doi:10.1063/5.0004997

                                      AUTHORS
                                      -------
  E. Apra, E. J. Bylaska, N. Govind, K. Kowalski, M. Valiev, D. Mejia-Rodriguez,
       A. Kunitsa, N. P. Bauman, A. Panyala, W. A. de Jong, T. P. Straatsma,
        H. J. J. van Dam, D. Wang, T. L. Windus, J. Hammond, J. Autschbach,
    K. Bhaskaran-Nair, J. Brabec, K. Lopata, S. A. Fischer, S. Krishnamoorthy,
     M. Jacquelin, W. Ma, M. Klemm, O. Villa, Y. Chen, V. Anisimov, F. Aquino,
    S. Hirata, M. T. Hackler, Eric Hermes, L. Jensen, J. E. Moore, J. C. Becca,
      V. Konjkov, T. Risthaus, M. Malagoli, A. Marenich, A. Otero-de-la-Roza,
        J. Mullin, P. Nichols, R. Peverati, J. Pittner, Y. Zhao, P.-D. Fan,
        A. Fonari, M. J. Williamson, R. J. Harrison, J. R. Rehr, M. Dupuis,
     D. Silverstein, D. M. A. Smith, J. Nieplocha, V. Tipparaju, M. Krishnan,
     B. E. Van Kuiken, A. Vazquez-Mayagoitia, M. Swart, Q. Wu, T. Van Voorhis,
     A. A. Auer, M. Nooijen, L. D. Crosby, E. Brown, G. Cisneros, G. I. Fann,
   H. Fruchtl, J. Garza, K. Hirao, R. A. Kendall, J. A. Nichols, K. Tsemekhman,
    K. Wolinski, J. Anchell, D. E. Bernholdt, P. Borowski, T. Clark, D. Clerc,
   H. Dachsel, M. J. O. Deegan, K. Dyall, D. Elwood, E. Glendening, M. Gutowski,
   A. C. Hess, J. Jaffe, B. G. Johnson, J. Ju, R. Kobayashi, R. Kutteh, Z. Lin,
   R. Littlefield, X. Long, B. Meng, T. Nakajima, S. Niu, L. Pollack, M. Rosing,
   K. Glaesemann, G. Sandrone, M. Stave, H. Taylor, G. Thomas, J. H. van Lenthe,
                               A. T. Wong, Z. Zhang.

 Total times  cpu:     2580.4s     wall:     2620.8s
