 argument  1 = h3o-dft-pbe-aug.nw



============================== echo of input deck ==============================
echo
start h3o-dat

memory heap 100 mb stack 1024 mb global 2048 mb

geometry
  load ../xyz/h3o+.xyz
end
charge +1

basis "cc-pvdz" spherical
  * library aug-cc-pvdz
end
basis "cc-pvtz" spherical
  * library aug-cc-pvtz
end
basis "cc-pvqz" spherical
  * library aug-cc-pvqz
end
basis "cc-pv5z" spherical
  * library aug-cc-pv5z
end
basis "cc-pv6z" spherical
  * library aug-cc-pv6z
end

dft
  direct
  # select PBE functional following https://doi.org/10.1002/aic.15517
  xc xpbe96 cpbe96
end

set int:txs:limxmem              50000000

set "ao basis" "cc-pvdz"
task dft optimize

set "ao basis" "cc-pvtz"
task dft optimize

set "ao basis" "cc-pvqz"
task dft optimize

set "ao basis" "cc-pv5z"
task dft optimize

set "ao basis" "cc-pv6z"
task dft optimize
================================================================================


                                         
                                         


             Northwest Computational Chemistry Package (NWChem) 7.0.1
             --------------------------------------------------------


                    Environmental Molecular Sciences Laboratory
                       Pacific Northwest National Laboratory
                                Richland, WA 99352

                              Copyright (c) 1994-2020
                       Pacific Northwest National Laboratory
                            Battelle Memorial Institute

             NWChem is an open-source computational chemistry package
                        distributed under the terms of the
                      Educational Community License (ECL) 2.0
             A copy of the license is included with this distribution
                              in the LICENSE.TXT file

                                  ACKNOWLEDGMENT
                                  --------------

            This software and its documentation were developed at the
            EMSL at Pacific Northwest National Laboratory, a multiprogram
            national laboratory, operated for the U.S. Department of Energy
            by Battelle under Contract Number DE-AC05-76RL01830. Support
            for this work was provided by the Department of Energy Office
            of Biological and Environmental Research, Office of Basic
            Energy Sciences, and the Office of Advanced Scientific Computing.


           Job information
           ---------------

    hostname        = node01
    program         = /home/hvandam/nwchem-1-srp-hpc/QA/tests/ZSM-5/nwc/../../../../bin/LINUX64/nwchem
    date            = Sat Jun  3 15:25:19 2023

    compiled        = Fri_Jun_02_17:17:24_2023
    source          = /home/hvandam/nwchem-1-srp-hpc
    nwchem branch   = 7.0.0
    nwchem revision = nwchem_on_git-4134-gde132dc
    ga revision     = 5.8.1
    use scalapack   = F
    input           = h3o-dft-pbe-aug.nw
    prefix          = h3o-dat.
    data base       = ./h3o-dat.db
    status          = startup
    nproc           =       16
    time left       =  86398s



           Memory information
           ------------------

    heap     =   13107196 doubles =    100.0 Mbytes
    stack    =  134217729 doubles =   1024.0 Mbytes
    global   =  268435456 doubles =   2048.0 Mbytes (distinct from heap & stack)
    total    =  415760381 doubles =   3172.0 Mbytes
    verify   = yes
    hardfail = no 


           Directory information
           ---------------------

  0 permanent = .
  0 scratch   = .




                                NWChem Input Module
                                -------------------



 Scaling coordinates for geometry "geometry" by  1.889725989
 (inverse scale =  0.529177249)

 C1  symmetry detected

          ------
          auto-z
          ------
  Looking for out-of-plane bends
  no constraints, skipping    0.0000000000000000     
  no constraints, skipping    0.0000000000000000     


                             Geometry "geometry" -> ""
                             -------------------------

 Output coordinates in angstroms (scale by  1.889725989 to convert to a.u.)

  No.       Tag          Charge          X              Y              Z
 ---- ---------------- ---------- -------------- -------------- --------------
    1 O                    8.0000    -0.00393594    -0.03937203    -0.12267284
    2 H                    1.0000     0.24573764    -0.79112261     0.43543247
    3 H                    1.0000    -0.78901135     0.32504307     0.31300753
    4 H                    1.0000     0.57476125     0.78105575     0.23294275

      Atomic Mass 
      ----------- 

      O                 15.994910
      H                  1.007825


 Effective nuclear repulsion energy (a.u.)      13.7532336861

            Nuclear Dipole moment (a.u.) 
            ----------------------------
        X                 Y               Z
 ---------------- ---------------- ----------------
     0.0000000000     0.0000000000     0.0000000000



                                Z-matrix (autoz)
                                -------- 

 Units are Angstrom for bonds and degrees for angles

      Type          Name      I     J     K     L     M      Value
      ----------- --------  ----- ----- ----- ----- ----- ----------
    1 Stretch                  1     2                       0.96899
    2 Stretch                  1     3                       0.96900
    3 Stretch                  1     4                       1.06511
    4 Bend                     2     1     3               103.97818
    5 Bend                     2     1     4               105.38417
    6 Bend                     3     1     4                90.02276


            XYZ format geometry
            -------------------
     4
 geometry
 O                    -0.00393594    -0.03937203    -0.12267284
 H                     0.24573764    -0.79112261     0.43543247
 H                    -0.78901135     0.32504307     0.31300753
 H                     0.57476125     0.78105575     0.23294275

 ==============================================================================
                                internuclear distances
 ------------------------------------------------------------------------------
       center one      |      center two      | atomic units |  angstroms
 ------------------------------------------------------------------------------
    2 H                |   1 O                |     1.83113  |     0.96899
    3 H                |   1 O                |     1.83114  |     0.96900
    4 H                |   1 O                |     2.01276  |     1.06511
 ------------------------------------------------------------------------------
                         number of included internuclear distances:          3
 ==============================================================================



 ==============================================================================
                                 internuclear angles
 ------------------------------------------------------------------------------
        center 1       |       center 2       |       center 3       |  degrees
 ------------------------------------------------------------------------------
    2 H                |   1 O                |   3 H                |   103.98
    2 H                |   1 O                |   4 H                |   105.38
    3 H                |   1 O                |   4 H                |    90.02
 ------------------------------------------------------------------------------
                            number of included internuclear angles:          3
 ==============================================================================





 Summary of "cc-pvdz" -> "" (spherical)
 ------------------------------------------------------------------------------
       Tag                 Description            Shells   Functions and Types
 ---------------- ------------------------------  ------  ---------------------
 *                        aug-cc-pvdz                 on all atoms 




 Summary of "cc-pvtz" -> "" (spherical)
 ------------------------------------------------------------------------------
       Tag                 Description            Shells   Functions and Types
 ---------------- ------------------------------  ------  ---------------------
 *                        aug-cc-pvtz                 on all atoms 




 Summary of "cc-pvqz" -> "" (spherical)
 ------------------------------------------------------------------------------
       Tag                 Description            Shells   Functions and Types
 ---------------- ------------------------------  ------  ---------------------
 *                        aug-cc-pvqz                 on all atoms 




 Summary of "cc-pv5z" -> "" (spherical)
 ------------------------------------------------------------------------------
       Tag                 Description            Shells   Functions and Types
 ---------------- ------------------------------  ------  ---------------------
 *                        aug-cc-pv5z                 on all atoms 




 Summary of "cc-pv6z" -> "" (spherical)
 ------------------------------------------------------------------------------
       Tag                 Description            Shells   Functions and Types
 ---------------- ------------------------------  ------  ---------------------
 *                        aug-cc-pv6z                 on all atoms 


  pbe96 is a nonlocal functional; adding pw91lda local functional. 


                           NWChem Geometry Optimization
                           ----------------------------


  no constraints, skipping    0.0000000000000000     
 maximum gradient threshold         (gmax) =   0.000450
 rms gradient threshold             (grms) =   0.000300
 maximum cartesian step threshold   (xmax) =   0.001800
 rms cartesian step threshold       (xrms) =   0.001200
 fixed trust radius                (trust) =   0.300000
 maximum step size to saddle      (sadstp) =   0.100000
 energy precision                  (eprec) =   5.0D-06
 maximum number of steps          (nptopt) =   40
 initial hessian option           (inhess) =    0
 line search option               (linopt) =    1
 hessian update option            (modupd) =    1
 saddle point option              (modsad) =    0
 initial eigen-mode to follow     (moddir) =    0
 initial variable to follow       (vardir) =    0
 follow first negative mode     (firstneg) =    T
 apply conjugacy                    (opcg) =    F
 source of zmatrix                         =   autoz   


          -------------------
          Energy Minimization
          -------------------


 Names of Z-matrix variables 
    1              2              3              4              5         
    6         

 Variables with the same non-blank name are constrained to be equal


 Using diagonal initial Hessian 
 Scaling for Hessian diagonals: bonds = 1.00  angles = 0.25  torsions = 0.10

          --------
          Step   0
          --------


                         Geometry "geometry" -> "geometry"
                         ---------------------------------

 Output coordinates in angstroms (scale by  1.889725989 to convert to a.u.)

  No.       Tag          Charge          X              Y              Z
 ---- ---------------- ---------- -------------- -------------- --------------
    1 O                    8.0000    -0.00393594    -0.03937203    -0.12267284
    2 H                    1.0000     0.24573764    -0.79112261     0.43543247
    3 H                    1.0000    -0.78901135     0.32504307     0.31300753
    4 H                    1.0000     0.57476125     0.78105575     0.23294275

      Atomic Mass 
      ----------- 

      O                 15.994910
      H                  1.007825


 Effective nuclear repulsion energy (a.u.)      13.7532336861

            Nuclear Dipole moment (a.u.) 
            ----------------------------
        X                 Y               Z
 ---------------- ---------------- ----------------
     0.0000000000     0.0000000000     0.0000000000


                                 NWChem DFT Module
                                 -----------------


                      Basis "ao basis" -> "cc-pvdz" (spherical)
                      -----
  O (Oxygen)
  ----------
            Exponent  Coefficients 
       -------------- ---------------------------------------------------------
  1 S  1.17200000E+04  0.000710
  1 S  1.75900000E+03  0.005470
  1 S  4.00800000E+02  0.027837
  1 S  1.13700000E+02  0.104800
  1 S  3.70300000E+01  0.283062
  1 S  1.32700000E+01  0.448719
  1 S  5.02500000E+00  0.270952
  1 S  1.01300000E+00  0.015458

  2 S  1.17200000E+04 -0.000160
  2 S  1.75900000E+03 -0.001263
  2 S  4.00800000E+02 -0.006267
  2 S  1.13700000E+02 -0.025716
  2 S  3.70300000E+01 -0.070924
  2 S  1.32700000E+01 -0.165411
  2 S  5.02500000E+00 -0.116955
  2 S  1.01300000E+00  0.557368

  3 S  3.02300000E-01  1.000000

  4 S  7.89600000E-02  1.000000

  5 P  1.77000000E+01  0.043018
  5 P  3.85400000E+00  0.228913
  5 P  1.04600000E+00  0.508728

  6 P  2.75300000E-01  1.000000

  7 P  6.85600000E-02  1.000000

  8 D  1.18500000E+00  1.000000

  9 D  3.32000000E-01  1.000000

  H (Hydrogen)
  ------------
            Exponent  Coefficients 
       -------------- ---------------------------------------------------------
  1 S  1.30100000E+01  0.019685
  1 S  1.96200000E+00  0.137977
  1 S  4.44600000E-01  0.478148

  2 S  1.22000000E-01  1.000000

  3 S  2.97400000E-02  1.000000

  4 P  7.27000000E-01  1.000000

  5 P  1.41000000E-01  1.000000



 Summary of "ao basis" -> "cc-pvdz" (spherical)
 ------------------------------------------------------------------------------
       Tag                 Description            Shells   Functions and Types
 ---------------- ------------------------------  ------  ---------------------
 O                        aug-cc-pvdz                9       23   4s3p2d
 H                        aug-cc-pvdz                5        9   3s2p




 Summary of "ao basis" -> "cc-pvdz" (spherical)
 ------------------------------------------------------------------------------
       Tag                 Description            Shells   Functions and Types
 ---------------- ------------------------------  ------  ---------------------
 O                        aug-cc-pvdz                9       23   4s3p2d
 H                        aug-cc-pvdz                5        9   3s2p


  texas integral default override: limxmem =             50000000
  Caching 1-el integrals 

            General Information
            -------------------
          SCF calculation type: DFT
          Wavefunction type:  closed shell.
          No. of atoms     :     4
          No. of electrons :    10
           Alpha electrons :     5
            Beta electrons :     5
          Charge           :     1
          Spin multiplicity:     1
          Use of symmetry is: off; symmetry adaption is: off
          Maximum number of iterations: 500
          This is a Direct SCF calculation.
          AO basis - number of functions:    50
                     number of shells:    24
          Convergence on energy requested:  1.00D-06
          Convergence on density requested:  1.00D-05
          Convergence on gradient requested:  5.00D-04

              XC Information
              --------------
          PerdewBurkeErnzerhof Exchange Functional  1.000          
            Perdew 1991 LDA Correlation Functional  1.000 local    
           PerdewBurkeErnz. Correlation Functional  1.000 non-local

             Grid Information
             ----------------
          Grid used for XC integration:  medium    
          Radial quadrature: Mura-Knowles        
          Angular quadrature: Lebedev. 
          Tag              B.-S. Rad. Rad. Pts. Rad. Cut. Ang. Pts.
          ---              ---------- --------- --------- ---------
          O                   0.60       49           9.0       434
          H                   0.35       45          12.0       434
          Grid pruning is: on 
          Number of quadrature shells:   184
          Spatial weights used:  Erf1

          Convergence Information
          -----------------------
          Convergence aids based upon iterative change in 
          total energy or number of iterations. 
          Levelshifting, if invoked, occurs when the 
          HOMO/LUMO gap drops below (HL_TOL):  1.00D-02
          DIIS, if invoked, will attempt to extrapolate 
          using up to (NFOCK): 10 stored Fock matrices.

                    Damping( 0%)  Levelshifting(0.5)       DIIS
                  --------------- ------------------- ---------------
          dE  on:    start            ASAP                start   
          dE off:    2 iters        500 iters           500 iters 


      Screening Tolerance Information
      -------------------------------
          Density screening/tol_rho:  1.00D-10
          AO Gaussian exp screening on grid/accAOfunc:  14
          CD Gaussian exp screening on grid/accCDfunc:  20
          XC Gaussian exp screening on grid/accXCfunc:  20
          Schwarz screening/accCoul:  1.00D-08


      Superposition of Atomic Density Guess
      -------------------------------------

 Sum of atomic energies:         -76.26481858

 Renormalizing density from      11.00 to     10

      Non-variational initial energy
      ------------------------------

 Total energy =     -71.837997
 1-e energy   =    -119.106087
 2-e energy   =      33.514856
 HOMO         =      -1.243818
 LUMO         =      -0.366306

   Time after variat. SCF:      0.4
   Time prior to 1st pass:      0.4

 Grid_pts file          = ./h3o-dat.gridpts.00
 Record size in doubles =  12289        No. of grid_pts per rec  =   3070
 Max. records in memory =      3        Max. recs in file   =   4694726


           Memory utilization after 1st SCF pass: 
           Heap Space remaining (MW):       13.07            13067916
          Stack Space remaining (MW):      134.22           134217308

   convergence    iter        energy       DeltaE   RMS-Dens  Diis-err    time
 ---------------- ----- ----------------- --------- --------- ---------  ------
 d= 0,ls=0.0,diis     1    -76.2958810403 -9.00D+01  4.02D-02  3.73D+00     0.6
 d= 0,ls=0.0,diis     2    -75.4898689478  8.06D-01  2.94D-02  1.07D+01     0.7
 d= 0,ls=0.0,diis     3    -76.6084559601 -1.12D+00  3.17D-03  6.14D-02     0.8
 d= 0,ls=0.0,diis     4    -76.6150403650 -6.58D-03  2.71D-04  3.81D-04     0.9
 d= 0,ls=0.0,diis     5    -76.6150790590 -3.87D-05  6.62D-05  3.35D-05     1.0
  Resetting Diis
 d= 0,ls=0.0,diis     6    -76.6150827622 -3.70D-06  6.54D-06  4.47D-07     1.1
 d= 0,ls=0.0,diis     7    -76.6150828021 -4.00D-08  1.82D-06  1.18D-08     1.2


         Total DFT energy =      -76.615082802117
      One electron energy =     -128.014488261714
           Coulomb energy =       46.943671634161
    Exchange-Corr. energy =       -9.297499860645
 Nuclear repulsion energy =       13.753233686081

 Numeric. integr. density =       10.000001782818

     Total iterative time =      0.8s



                       DFT Final Molecular Orbital Analysis
                       ------------------------------------

 Vector    1  Occ=2.000000D+00  E=-1.921923D+01
              MO Center= -3.9D-03, -3.9D-02, -1.2D-01, r^2= 1.5D-02
   Bfn.  Coefficient  Atom+Function         Bfn.  Coefficient  Atom+Function  
  ----- ------------  ---------------      ----- ------------  ---------------
     1      1.005186  1 O  s          

 Vector    2  Occ=2.000000D+00  E=-1.378870D+00
              MO Center= -2.4D-02, -4.6D-03,  5.9D-02, r^2= 4.9D-01
   Bfn.  Coefficient  Atom+Function         Bfn.  Coefficient  Atom+Function  
  ----- ------------  ---------------      ----- ------------  ---------------
     2      0.456823  1 O  s                  3      0.344259  1 O  s          
    33      0.197873  3 H  s                 24      0.182670  2 H  s          
    42      0.143070  4 H  s                  4      0.123015  1 O  s          
     7      0.114548  1 O  pz                43     -0.061421  4 H  s          
    34     -0.057261  3 H  s                 25     -0.044610  2 H  s          

 Vector    3  Occ=2.000000D+00  E=-8.880044D-01
              MO Center=  1.3D-03, -1.1D-01,  4.6D-02, r^2= 7.0D-01
   Bfn.  Coefficient  Atom+Function         Bfn.  Coefficient  Atom+Function  
  ----- ------------  ---------------      ----- ------------  ---------------
     6      0.497301  1 O  py                24     -0.386426  2 H  s          
    33      0.265140  3 H  s                  5     -0.219966  1 O  px         
    42      0.168849  4 H  s                  9      0.140757  1 O  py         
     8     -0.059935  1 O  px                 7     -0.054916  1 O  pz         
    25     -0.051514  2 H  s                 34      0.036671  3 H  s          

 Vector    4  Occ=2.000000D+00  E=-8.365660D-01
              MO Center=  2.4D-02,  1.3D-01, -4.0D-06, r^2= 7.1D-01
   Bfn.  Coefficient  Atom+Function         Bfn.  Coefficient  Atom+Function  
  ----- ------------  ---------------      ----- ------------  ---------------
     5      0.514445  1 O  px                42      0.328441  4 H  s          
    33     -0.293334  3 H  s                  6      0.213202  1 O  py         
     8      0.203122  1 O  px                 9      0.090675  1 O  py         
     7     -0.063974  1 O  pz                24     -0.047128  2 H  s          
     3      0.046228  1 O  s                 34     -0.044300  3 H  s          

 Vector    5  Occ=2.000000D+00  E=-7.210123D-01
              MO Center= -9.3D-03, -4.3D-02, -2.1D-01, r^2= 6.3D-01
   Bfn.  Coefficient  Atom+Function         Bfn.  Coefficient  Atom+Function  
  ----- ------------  ---------------      ----- ------------  ---------------
     7      0.595611  1 O  pz                10      0.325411  1 O  pz         
     3     -0.317204  1 O  s                  2     -0.168064  1 O  s          
    24      0.149635  2 H  s                 42      0.130272  4 H  s          
    33      0.121245  3 H  s                  6      0.071886  1 O  py         
     5      0.041087  1 O  px                 9      0.041169  1 O  py         

 Vector    6  Occ=0.000000D+00  E=-3.207271D-01
              MO Center=  2.1D-01,  4.3D-01,  4.4D-01, r^2= 2.8D+00
   Bfn.  Coefficient  Atom+Function         Bfn.  Coefficient  Atom+Function  
  ----- ------------  ---------------      ----- ------------  ---------------
    43     -0.500569  4 H  s                  3      0.490669  1 O  s          
    42     -0.286335  4 H  s                  2      0.239688  1 O  s          
     7      0.224543  1 O  pz                25     -0.186048  2 H  s          
    34     -0.171591  3 H  s                 10      0.155802  1 O  pz         
     6      0.151355  1 O  py                44     -0.133304  4 H  s          

 Vector    7  Occ=0.000000D+00  E=-2.388968D-01
              MO Center= -3.7D-02,  2.0D-01,  4.2D-01, r^2= 3.0D+00
   Bfn.  Coefficient  Atom+Function         Bfn.  Coefficient  Atom+Function  
  ----- ------------  ---------------      ----- ------------  ---------------
    43      0.802414  4 H  s                 34     -0.520843  3 H  s          
    44      0.427190  4 H  s                 42      0.337094  4 H  s          
    25     -0.333512  2 H  s                 35     -0.326472  3 H  s          
     5     -0.301484  1 O  px                 6     -0.267148  1 O  py         
     8     -0.248444  1 O  px                26     -0.231689  2 H  s          

 Vector    8  Occ=0.000000D+00  E=-2.108135D-01
              MO Center= -2.3D-01, -3.1D-01,  5.5D-01, r^2= 3.5D+00
   Bfn.  Coefficient  Atom+Function         Bfn.  Coefficient  Atom+Function  
  ----- ------------  ---------------      ----- ------------  ---------------
    25      0.662458  2 H  s                 34     -0.647249  3 H  s          
    26      0.610271  2 H  s                 35     -0.579301  3 H  s          
     6      0.305123  1 O  py                 5     -0.278284  1 O  px         
    24      0.237073  2 H  s                  9      0.226379  1 O  py         
     8     -0.221030  1 O  px                33     -0.220062  3 H  s          

 Vector    9  Occ=0.000000D+00  E=-1.216067D-01
              MO Center= -5.9D-02,  1.9D-01, -3.5D-01, r^2= 5.5D+00
   Bfn.  Coefficient  Atom+Function         Bfn.  Coefficient  Atom+Function  
  ----- ------------  ---------------      ----- ------------  ---------------
     4      1.691441  1 O  s                 13      1.224928  1 O  pz         
    25     -0.979543  2 H  s                 43     -0.658398  4 H  s          
    34     -0.471574  3 H  s                 35     -0.300289  3 H  s          
     3      0.265002  1 O  s                  7     -0.224655  1 O  pz         
    44     -0.184890  4 H  s                 50      0.171669  4 H  pz         

 Vector   10  Occ=0.000000D+00  E=-1.147912D-01
              MO Center=  5.8D-01, -4.5D-02,  4.9D-02, r^2= 7.6D+00
   Bfn.  Coefficient  Atom+Function         Bfn.  Coefficient  Atom+Function  
  ----- ------------  ---------------      ----- ------------  ---------------
    44      1.350539  4 H  s                 35     -1.038824  3 H  s          
    43     -0.820040  4 H  s                 34      0.706236  3 H  s          
    11      0.554881  1 O  px                42     -0.271306  4 H  s          
    30      0.251066  2 H  px                33      0.208102  3 H  s          
    12      0.159279  1 O  py                48      0.123415  4 H  px         

 Vector   11  Occ=0.000000D+00  E=-1.021274D-01
              MO Center=  7.4D-02, -2.7D-01, -9.1D-02, r^2= 6.8D+00
   Bfn.  Coefficient  Atom+Function         Bfn.  Coefficient  Atom+Function  
  ----- ------------  ---------------      ----- ------------  ---------------
    26      1.172970  2 H  s                 25     -0.956691  2 H  s          
    12     -0.634907  1 O  py                34      0.547882  3 H  s          
    44     -0.510027  4 H  s                 43      0.483173  4 H  s          
    35     -0.343094  3 H  s                 24     -0.320029  2 H  s          
    40     -0.231298  3 H  py                48      0.211422  4 H  px         

 Vector   12  Occ=0.000000D+00  E=-8.231183D-02
              MO Center= -5.0D-01,  7.3D-01,  6.9D-01, r^2= 1.0D+01
   Bfn.  Coefficient  Atom+Function         Bfn.  Coefficient  Atom+Function  
  ----- ------------  ---------------      ----- ------------  ---------------
    35      0.958694  3 H  s                 44      0.693839  4 H  s          
     4     -0.635404  1 O  s                 34     -0.550797  3 H  s          
    25     -0.277450  2 H  s                  3      0.248251  1 O  s          
    33     -0.222087  3 H  s                 43     -0.197180  4 H  s          
    13      0.194347  1 O  pz                11     -0.188651  1 O  px         

 Vector   13  Occ=0.000000D+00  E=-4.050410D-02
              MO Center=  3.1D-01, -7.1D-01,  5.2D-01, r^2= 8.8D+00
   Bfn.  Coefficient  Atom+Function         Bfn.  Coefficient  Atom+Function  
  ----- ------------  ---------------      ----- ------------  ---------------
    26      2.475713  2 H  s                  4     -1.345657  1 O  s          
    35     -1.282091  3 H  s                 25      1.028150  2 H  s          
    12      0.663076  1 O  py                44     -0.521664  4 H  s          
    32     -0.491196  2 H  pz                40      0.446693  3 H  py         
    48     -0.373929  4 H  px                11     -0.326452  1 O  px         

 Vector   14  Occ=0.000000D+00  E=-3.201391D-02
              MO Center= -1.7D-01,  3.8D-01,  4.5D-01, r^2= 1.1D+01
   Bfn.  Coefficient  Atom+Function         Bfn.  Coefficient  Atom+Function  
  ----- ------------  ---------------      ----- ------------  ---------------
    44     -2.820447  4 H  s                 35      2.779964  3 H  s          
    11      1.184535  1 O  px                43     -0.856741  4 H  s          
    34      0.779377  3 H  s                 12      0.507155  1 O  py         
    30      0.390307  2 H  px                50      0.379657  4 H  pz         
    41     -0.376396  3 H  pz                 5     -0.183254  1 O  px         

 Vector   15  Occ=0.000000D+00  E=-1.630517D-02
              MO Center=  2.0D-01, -1.2D-01,  1.1D-02, r^2= 1.0D+01
   Bfn.  Coefficient  Atom+Function         Bfn.  Coefficient  Atom+Function  
  ----- ------------  ---------------      ----- ------------  ---------------
    26      2.719128  2 H  s                 12      2.098080  1 O  py         
    44     -1.639908  4 H  s                 35     -1.294977  3 H  s          
     4      1.105680  1 O  s                 43     -0.779736  4 H  s          
    34     -0.750004  3 H  s                 25      0.427917  2 H  s          
    32      0.353541  2 H  pz                40     -0.335901  3 H  py         

 Vector   16  Occ=0.000000D+00  E=-9.516466D-03
              MO Center= -3.3D-01,  2.0D-01, -2.2D-01, r^2= 6.0D+00
   Bfn.  Coefficient  Atom+Function         Bfn.  Coefficient  Atom+Function  
  ----- ------------  ---------------      ----- ------------  ---------------
     4      2.787795  1 O  s                 35     -1.681553  3 H  s          
    34     -1.263167  3 H  s                 11     -1.192294  1 O  px         
    44      0.931239  4 H  s                 50      0.756404  4 H  pz         
    25     -0.647194  2 H  s                 43     -0.566911  4 H  s          
    13     -0.323088  1 O  pz                32      0.309791  2 H  pz         

 Vector   17  Occ=0.000000D+00  E=-5.409787D-03
              MO Center= -8.3D-02,  1.8D-01, -1.7D-01, r^2= 6.0D+00
   Bfn.  Coefficient  Atom+Function         Bfn.  Coefficient  Atom+Function  
  ----- ------------  ---------------      ----- ------------  ---------------
     4      2.063110  1 O  s                 35      1.573491  3 H  s          
    11      1.350131  1 O  px                44     -1.280767  4 H  s          
    43     -0.929943  4 H  s                 25     -0.806244  2 H  s          
    41      0.764598  3 H  pz                26     -0.673772  2 H  s          
    30     -0.458992  2 H  px                48     -0.340205  4 H  px         

 Vector   18  Occ=0.000000D+00  E= 1.087674D-01
              MO Center=  9.4D-03, -3.5D-02, -2.6D-01, r^2= 8.4D+00
   Bfn.  Coefficient  Atom+Function         Bfn.  Coefficient  Atom+Function  
  ----- ------------  ---------------      ----- ------------  ---------------
     4      9.540605  1 O  s                 34     -3.469995  3 H  s          
    25     -3.354639  2 H  s                 43     -3.022968  4 H  s          
    13      2.845403  1 O  pz                10      0.627728  1 O  pz         
    26     -0.564514  2 H  s                 44     -0.538456  4 H  s          
    35     -0.530863  3 H  s                 12      0.441830  1 O  py         

 Vector   19  Occ=0.000000D+00  E= 1.845124D-01
              MO Center=  3.0D-01,  1.8D-02,  3.5D-01, r^2= 5.2D+00
   Bfn.  Coefficient  Atom+Function         Bfn.  Coefficient  Atom+Function  
  ----- ------------  ---------------      ----- ------------  ---------------
    30     -1.548018  2 H  px                12      1.407518  1 O  py         
    48      1.126426  4 H  px                49     -1.028166  4 H  py         
    40      0.999712  3 H  py                44     -0.954657  4 H  s          
    31     -0.814357  2 H  py                50      0.797783  4 H  pz         
    26      0.793299  2 H  s                 43     -0.663009  4 H  s          

 Vector   20  Occ=0.000000D+00  E= 1.945655D-01
              MO Center=  2.5D-01,  6.0D-01,  4.5D-01, r^2= 6.1D+00
   Bfn.  Coefficient  Atom+Function         Bfn.  Coefficient  Atom+Function  
  ----- ------------  ---------------      ----- ------------  ---------------
    12      2.304108  1 O  py                26      1.633044  2 H  s          
    44     -1.630867  4 H  s                 40     -1.410996  3 H  py         
    25      1.161689  2 H  s                 43     -1.023884  4 H  s          
    50      1.013750  4 H  pz                49      0.893087  4 H  py         
    32     -0.871115  2 H  pz                13     -0.638518  1 O  pz         

 Vector   21  Occ=0.000000D+00  E= 2.064439D-01
              MO Center= -1.6D-02,  3.5D-01,  4.4D-01, r^2= 6.6D+00
   Bfn.  Coefficient  Atom+Function         Bfn.  Coefficient  Atom+Function  
  ----- ------------  ---------------      ----- ------------  ---------------
    11      2.537815  1 O  px                35      2.233317  3 H  s          
    41     -1.388095  3 H  pz                49      1.322363  4 H  py         
    12     -1.239469  1 O  py                44     -1.223941  4 H  s          
    26     -1.133922  2 H  s                 34      1.050506  3 H  s          
    30     -0.933929  2 H  px                32      0.856429  2 H  pz         

 Vector   22  Occ=0.000000D+00  E= 2.189290D-01
              MO Center=  2.1D-01,  3.0D-01, -1.0D-01, r^2= 5.7D+00
   Bfn.  Coefficient  Atom+Function         Bfn.  Coefficient  Atom+Function  
  ----- ------------  ---------------      ----- ------------  ---------------
    48      2.295848  4 H  px                43     -1.927419  4 H  s          
    11     -1.731943  1 O  px                49      1.529021  4 H  py         
    12     -1.454821  1 O  py                39      1.368236  3 H  px         
    40      1.371888  3 H  py                34      1.127122  3 H  s          
    31      0.902797  2 H  py                 3      0.740086  1 O  s          

 Vector   23  Occ=0.000000D+00  E= 2.467520D-01
              MO Center= -2.0D-01, -6.5D-01,  5.4D-01, r^2= 5.2D+00
   Bfn.  Coefficient  Atom+Function         Bfn.  Coefficient  Atom+Function  
  ----- ------------  ---------------      ----- ------------  ---------------
     3      1.977977  1 O  s                  4      1.977931  1 O  s          
    25     -1.865199  2 H  s                 31     -1.658413  2 H  py         
    39     -1.420306  3 H  px                32      1.266833  2 H  pz         
    43      1.203603  4 H  s                 34     -0.892827  3 H  s          
    26     -0.801104  2 H  s                 41      0.618220  3 H  pz         

 Vector   24  Occ=0.000000D+00  E= 2.502316D-01
              MO Center= -4.3D-01, -2.2D-01,  2.2D-01, r^2= 4.9D+00
   Bfn.  Coefficient  Atom+Function         Bfn.  Coefficient  Atom+Function  
  ----- ------------  ---------------      ----- ------------  ---------------
    25      3.408849  2 H  s                 34     -3.350667  3 H  s          
    39     -2.564926  3 H  px                31      2.440056  2 H  py         
    40      1.253672  3 H  py                30     -1.071297  2 H  px         
    49      0.753750  4 H  py                35     -0.623211  3 H  s          
    26      0.550153  2 H  s                 32     -0.535393  2 H  pz         

 Vector   25  Occ=0.000000D+00  E= 3.272314D-01
              MO Center=  7.0D-02,  1.2D-01,  1.6D-01, r^2= 5.1D+00
   Bfn.  Coefficient  Atom+Function         Bfn.  Coefficient  Atom+Function  
  ----- ------------  ---------------      ----- ------------  ---------------
    34     11.364586  3 H  s                 43     -6.997721  4 H  s          
    25     -5.291342  2 H  s                 39      4.419979  3 H  px         
    48      2.752923  4 H  px                11      1.780922  1 O  px         
    31     -1.483255  2 H  py                30      1.460026  2 H  px         
    49      1.416931  4 H  py                 8      1.202691  1 O  px         

 Vector   26  Occ=0.000000D+00  E= 3.450257D-01
              MO Center= -4.2D-02,  4.0D-02,  1.3D-01, r^2= 5.0D+00
   Bfn.  Coefficient  Atom+Function         Bfn.  Coefficient  Atom+Function  
  ----- ------------  ---------------      ----- ------------  ---------------
    25      8.150954  2 H  s                 43     -8.025892  4 H  s          
    31      2.929294  2 H  py                49      2.738611  4 H  py         
    12      2.045410  1 O  py                48      1.998347  4 H  px         
     9      1.218167  1 O  py                26      1.108778  2 H  s          
    40      1.100122  3 H  py                32     -1.002313  2 H  pz         

 Vector   27  Occ=0.000000D+00  E= 5.053400D-01
              MO Center= -1.8D-02,  1.5D-02,  1.3D-01, r^2= 3.3D+00
   Bfn.  Coefficient  Atom+Function         Bfn.  Coefficient  Atom+Function  
  ----- ------------  ---------------      ----- ------------  ---------------
     4      6.383469  1 O  s                 34     -3.402870  3 H  s          
    43     -2.917525  4 H  s                 25     -2.199249  2 H  s          
     3      1.359939  1 O  s                 13      0.732252  1 O  pz         
    12      0.714364  1 O  py                32      0.652181  2 H  pz         
    21     -0.567984  1 O  d  0              39     -0.498111  3 H  px         

 Vector   28  Occ=0.000000D+00  E= 5.608141D-01
              MO Center= -7.3D-02,  1.0D-01, -7.3D-02, r^2= 2.6D+00
   Bfn.  Coefficient  Atom+Function         Bfn.  Coefficient  Atom+Function  
  ----- ------------  ---------------      ----- ------------  ---------------
     4      2.268815  1 O  s                 43     -1.777048  4 H  s          
    21     -0.704580  1 O  d  0              23      0.640479  1 O  d  2       
    25     -0.602781  2 H  s                 40      0.576563  3 H  py         
    39      0.569308  3 H  px                49      0.557841  4 H  py         
    20     -0.530358  1 O  d -1              50      0.484227  4 H  pz         

 Vector   29  Occ=0.000000D+00  E= 5.814753D-01
              MO Center=  2.0D-02, -2.9D-02, -1.2D-02, r^2= 2.6D+00
   Bfn.  Coefficient  Atom+Function         Bfn.  Coefficient  Atom+Function  
  ----- ------------  ---------------      ----- ------------  ---------------
    43      1.213856  4 H  s                 34     -1.038322  3 H  s          
    22     -0.892800  1 O  d  1              30     -0.890675  2 H  px         
    48     -0.667231  4 H  px                11      0.615015  1 O  px         
    19     -0.584510  1 O  d -2              41      0.553016  3 H  pz         
    39     -0.545163  3 H  px                50     -0.449297  4 H  pz         

 Vector   30  Occ=0.000000D+00  E= 6.777512D-01
              MO Center=  3.8D-02,  7.0D-02,  1.4D-01, r^2= 2.9D+00
   Bfn.  Coefficient  Atom+Function         Bfn.  Coefficient  Atom+Function  
  ----- ------------  ---------------      ----- ------------  ---------------
     4      5.712034  1 O  s                 43     -3.157497  4 H  s          
    34     -3.075006  3 H  s                 25     -2.037000  2 H  s          
    13      1.623691  1 O  pz                 3      1.469352  1 O  s          
    21      0.761193  1 O  d  0              42      0.761975  4 H  s          
    49      0.760561  4 H  py                24      0.653875  2 H  s          

 Vector   31  Occ=0.000000D+00  E= 7.860912D-01
              MO Center=  2.3D-02, -1.0D-01, -2.0D-01, r^2= 2.2D+00
   Bfn.  Coefficient  Atom+Function         Bfn.  Coefficient  Atom+Function  
  ----- ------------  ---------------      ----- ------------  ---------------
    34      4.745317  3 H  s                 43     -3.426127  4 H  s          
     4     -2.303385  1 O  s                 25      1.692084  2 H  s          
     8      1.497173  1 O  px                39      1.391982  3 H  px         
    48      1.126984  4 H  px                49      1.036231  4 H  py         
     9      0.714577  1 O  py                19     -0.650613  1 O  d -2       

 Vector   32  Occ=0.000000D+00  E= 8.408803D-01
              MO Center=  1.7D-02, -5.7D-02, -2.5D-01, r^2= 2.3D+00
   Bfn.  Coefficient  Atom+Function         Bfn.  Coefficient  Atom+Function  
  ----- ------------  ---------------      ----- ------------  ---------------
    25      6.111476  2 H  s                 34     -4.328653  3 H  s          
     9      1.926423  1 O  py                31      1.780249  2 H  py         
    43     -1.431113  4 H  s                 39     -1.407185  3 H  px         
    32     -1.349949  2 H  pz                12      1.135745  1 O  py         
     8     -0.982564  1 O  px                41      0.798071  3 H  pz         

 Vector   33  Occ=0.000000D+00  E= 8.890400D-01
              MO Center= -9.2D-02, -1.2D-01, -3.4D-01, r^2= 2.3D+00
   Bfn.  Coefficient  Atom+Function         Bfn.  Coefficient  Atom+Function  
  ----- ------------  ---------------      ----- ------------  ---------------
     4      5.257230  1 O  s                 43     -2.876866  4 H  s          
    10      2.016464  1 O  pz                25     -1.984750  2 H  s          
    13      1.144213  1 O  pz                34     -0.899379  3 H  s          
     7     -0.847794  1 O  pz                49      0.454867  4 H  py         
     9      0.448990  1 O  py                41     -0.428472  3 H  pz         

 Vector   34  Occ=0.000000D+00  E= 1.298817D+00
              MO Center=  2.2D-01,  8.7D-02,  1.5D-01, r^2= 2.1D+00
   Bfn.  Coefficient  Atom+Function         Bfn.  Coefficient  Atom+Function  
  ----- ------------  ---------------      ----- ------------  ---------------
    25      1.785506  2 H  s                 43     -1.347755  4 H  s          
    12      1.338183  1 O  py                 9      1.056145  1 O  py         
    32     -0.672906  2 H  pz                26      0.658665  2 H  s          
    50      0.659472  4 H  pz                24      0.586994  2 H  s          
    34     -0.577886  3 H  s                 44     -0.558976  4 H  s          

 Vector   35  Occ=0.000000D+00  E= 1.312545D+00
              MO Center=  5.2D-02,  2.7D-01,  1.0D-01, r^2= 2.1D+00
   Bfn.  Coefficient  Atom+Function         Bfn.  Coefficient  Atom+Function  
  ----- ------------  ---------------      ----- ------------  ---------------
    34      2.792028  3 H  s                 43     -1.695430  4 H  s          
     8      1.681117  1 O  px                11      1.449694  1 O  px         
    25     -1.007845  2 H  s                 41     -0.919771  3 H  pz         
    35      0.840980  3 H  s                 33      0.779671  3 H  s          
    49      0.762428  4 H  py                40     -0.646646  3 H  py         

 Vector   36  Occ=0.000000D+00  E= 1.338109D+00
              MO Center= -1.4D-01,  6.3D-02,  2.8D-01, r^2= 1.8D+00
   Bfn.  Coefficient  Atom+Function         Bfn.  Coefficient  Atom+Function  
  ----- ------------  ---------------      ----- ------------  ---------------
    43      1.285156  4 H  s                 25     -1.085317  2 H  s          
    49     -0.866390  4 H  py                37     -0.808854  3 H  py         
     9     -0.741699  1 O  py                40      0.668477  3 H  py         
    30     -0.628695  2 H  px                27      0.599976  2 H  px         
    12     -0.526962  1 O  py                32      0.402894  2 H  pz         

 Vector   37  Occ=0.000000D+00  E= 1.446938D+00
              MO Center=  1.3D-01,  7.9D-02,  1.0D-01, r^2= 1.9D+00
   Bfn.  Coefficient  Atom+Function         Bfn.  Coefficient  Atom+Function  
  ----- ------------  ---------------      ----- ------------  ---------------
    25      3.097239  2 H  s                 43     -1.964205  4 H  s          
    34     -1.677651  3 H  s                 31      1.511503  2 H  py         
    49      1.143525  4 H  py                40      0.949635  3 H  py         
     9      0.916269  1 O  py                23      0.760598  1 O  d  2       
    39     -0.678668  3 H  px                45     -0.644338  4 H  px         

 Vector   38  Occ=0.000000D+00  E= 1.571954D+00
              MO Center= -4.8D-02,  1.8D-01,  9.9D-02, r^2= 1.8D+00
   Bfn.  Coefficient  Atom+Function         Bfn.  Coefficient  Atom+Function  
  ----- ------------  ---------------      ----- ------------  ---------------
    34      3.747905  3 H  s                 43     -2.884791  4 H  s          
    39      1.754122  3 H  px                48      1.362962  4 H  px         
     8      0.955278  1 O  px                25     -0.843376  2 H  s          
    19      0.819893  1 O  d -2              23     -0.814635  1 O  d  2       
    49      0.802648  4 H  py                27      0.768333  2 H  px         

 Vector   39  Occ=0.000000D+00  E= 1.656727D+00
              MO Center=  2.4D-01,  3.8D-01,  1.9D-01, r^2= 1.6D+00
   Bfn.  Coefficient  Atom+Function         Bfn.  Coefficient  Atom+Function  
  ----- ------------  ---------------      ----- ------------  ---------------
    43      1.692441  4 H  s                 34     -1.040088  3 H  s          
    19     -0.924287  1 O  d -2              46     -0.694640  4 H  py         
    47     -0.677871  4 H  pz                25     -0.613620  2 H  s          
    45     -0.608279  4 H  px                42      0.470200  4 H  s          
     3      0.456011  1 O  s                 37     -0.448047  3 H  py         

 Vector   40  Occ=0.000000D+00  E= 1.755375D+00
              MO Center=  7.4D-02, -3.5D-01,  3.0D-01, r^2= 1.5D+00
   Bfn.  Coefficient  Atom+Function         Bfn.  Coefficient  Atom+Function  
  ----- ------------  ---------------      ----- ------------  ---------------
     3      1.851239  1 O  s                 25     -1.701474  2 H  s          
     4      1.099437  1 O  s                 31     -0.921201  2 H  py         
    28      0.885357  2 H  py                 2     -0.800271  1 O  s          
    21     -0.728438  1 O  d  0              38      0.722256  3 H  pz         
     9     -0.658026  1 O  py                32      0.659158  2 H  pz         

 Vector   41  Occ=0.000000D+00  E= 1.794792D+00
              MO Center= -1.2D-01, -2.0D-03,  2.4D-01, r^2= 1.6D+00
   Bfn.  Coefficient  Atom+Function         Bfn.  Coefficient  Atom+Function  
  ----- ------------  ---------------      ----- ------------  ---------------
    25      1.726372  2 H  s                  3     -1.415625  1 O  s          
    29     -1.060556  2 H  pz                21      0.819538  1 O  d  0       
    23      0.745597  1 O  d  2               4     -0.712078  1 O  s          
    36     -0.637174  3 H  px                 9      0.565797  1 O  py         
    24      0.561703  2 H  s                  2      0.554144  1 O  s          

 Vector   42  Occ=0.000000D+00  E= 1.865984D+00
              MO Center= -2.7D-01, -8.1D-02,  3.3D-01, r^2= 1.5D+00
   Bfn.  Coefficient  Atom+Function         Bfn.  Coefficient  Atom+Function  
  ----- ------------  ---------------      ----- ------------  ---------------
     3     -1.383113  1 O  s                  2      1.351148  1 O  s          
    38      0.660856  3 H  pz                36     -0.640364  3 H  px         
    29      0.637166  2 H  pz                 1      0.589745  1 O  s          
    25      0.551281  2 H  s                 39      0.539161  3 H  px         
    31      0.503026  2 H  py                21     -0.436764  1 O  d  0       

 Vector   43  Occ=0.000000D+00  E= 2.088702D+00
              MO Center=  3.7D-02,  8.2D-02,  1.9D-01, r^2= 1.7D+00
   Bfn.  Coefficient  Atom+Function         Bfn.  Coefficient  Atom+Function  
  ----- ------------  ---------------      ----- ------------  ---------------
    34      4.997993  3 H  s                 43     -3.828876  4 H  s          
     8      3.744657  1 O  px                33      2.121992  3 H  s          
    25     -1.743124  2 H  s                 39      1.657778  3 H  px         
    22     -1.551796  1 O  d  1              42     -1.528589  4 H  s          
    48      1.088473  4 H  px                49      0.946650  4 H  py         

 Vector   44  Occ=0.000000D+00  E= 2.235881D+00
              MO Center= -1.1D-02, -1.4D-01,  1.7D-01, r^2= 1.7D+00
   Bfn.  Coefficient  Atom+Function         Bfn.  Coefficient  Atom+Function  
  ----- ------------  ---------------      ----- ------------  ---------------
    25      4.918505  2 H  s                  9      3.798750  1 O  py         
    24      2.620068  2 H  s                 43     -2.231787  4 H  s          
    20      1.870656  1 O  d -1               3     -1.851398  1 O  s          
     4     -1.722928  1 O  s                 42     -1.437912  4 H  s          
    31      1.359871  2 H  py                10     -1.179187  1 O  pz         

 Vector   45  Occ=0.000000D+00  E= 2.505235D+00
              MO Center= -3.0D-02,  1.5D-01,  3.8D-02, r^2= 1.8D+00
   Bfn.  Coefficient  Atom+Function         Bfn.  Coefficient  Atom+Function  
  ----- ------------  ---------------      ----- ------------  ---------------
     3      6.388555  1 O  s                  4      4.960099  1 O  s          
    34     -3.179025  3 H  s                 43     -2.605319  4 H  s          
    10      2.082443  1 O  pz                33     -1.824078  3 H  s          
     9      1.727335  1 O  py                42     -1.612214  4 H  s          
     2     -1.564527  1 O  s                 25     -1.380388  2 H  s          

 Vector   46  Occ=0.000000D+00  E= 2.803536D+00
              MO Center= -2.7D-02, -2.2D-02, -1.1D-01, r^2= 8.1D-01
   Bfn.  Coefficient  Atom+Function         Bfn.  Coefficient  Atom+Function  
  ----- ------------  ---------------      ----- ------------  ---------------
    18      0.819566  1 O  d  2              43      0.803692  4 H  s          
     4     -0.610364  1 O  s                 16     -0.594922  1 O  d  0       
    15     -0.517918  1 O  d -1              23     -0.496904  1 O  d  2       
    21      0.395553  1 O  d  0               3     -0.384704  1 O  s          
    14      0.344304  1 O  d -2              49     -0.310874  4 H  py         

 Vector   47  Occ=0.000000D+00  E= 2.824415D+00
              MO Center= -5.4D-03, -3.9D-02, -1.1D-01, r^2= 8.2D-01
   Bfn.  Coefficient  Atom+Function         Bfn.  Coefficient  Atom+Function  
  ----- ------------  ---------------      ----- ------------  ---------------
    43      0.937225  4 H  s                 17      0.895223  1 O  d  1       
    34     -0.811382  3 H  s                 14      0.656881  1 O  d -2       
    22     -0.507626  1 O  d  1              19     -0.495984  1 O  d -2       
    15     -0.396899  1 O  d -1              30     -0.355741  2 H  px         
    39     -0.357010  3 H  px                48     -0.349857  4 H  px         

 Vector   48  Occ=0.000000D+00  E= 2.932638D+00
              MO Center=  1.2D-02, -5.5D-04,  5.7D-03, r^2= 1.0D+00
   Bfn.  Coefficient  Atom+Function         Bfn.  Coefficient  Atom+Function  
  ----- ------------  ---------------      ----- ------------  ---------------
     3      3.359807  1 O  s                  4      2.309677  1 O  s          
    34     -1.705503  3 H  s                 10      1.308475  1 O  pz         
    43     -1.147773  4 H  s                 16     -0.976057  1 O  d  0       
    33     -0.934837  3 H  s                 42     -0.880571  4 H  s          
     9      0.764409  1 O  py                 2     -0.641447  1 O  s          

 Vector   49  Occ=0.000000D+00  E= 3.278781D+00
              MO Center=  5.5D-03,  2.3D-02, -4.6D-02, r^2= 9.1D-01
   Bfn.  Coefficient  Atom+Function         Bfn.  Coefficient  Atom+Function  
  ----- ------------  ---------------      ----- ------------  ---------------
    43     -1.426324  4 H  s                 34      1.359058  3 H  s          
     8      1.286261  1 O  px                 9      1.288032  1 O  py         
    25      1.266399  2 H  s                  3     -1.188770  1 O  s          
    14      1.023630  1 O  d -2              33      1.028319  3 H  s          
    42     -1.000315  4 H  s                 24      0.909809  2 H  s          

 Vector   50  Occ=0.000000D+00  E= 3.425191D+00
              MO Center= -2.7D-02, -8.9D-02, -2.6D-02, r^2= 9.7D-01
   Bfn.  Coefficient  Atom+Function         Bfn.  Coefficient  Atom+Function  
  ----- ------------  ---------------      ----- ------------  ---------------
    25      3.064377  2 H  s                  9      2.555288  1 O  py         
    34     -2.517339  3 H  s                 24      1.826424  2 H  s          
    33     -1.587360  3 H  s                  8     -1.572474  1 O  px         
    15      0.908145  1 O  d -1              31      0.853808  2 H  py         
    28      0.771018  2 H  py                39     -0.762220  3 H  px         


 center of mass
 --------------
 x =  -0.00310223 y =  -0.03103221 z =  -0.09668816

 moments of inertia (a.u.)
 ------------------
           6.810612131217           0.000000000000           0.000000000000
           0.000000000000           5.559532391651           0.000000000000
           0.000000000000           0.000000000000           8.546062953747

     Multipole analysis of the density
     ---------------------------------

     L   x y z        total         alpha         beta         nuclear
     -   - - -        -----         -----         ----         -------
     0   0 0 0      1.000000     -5.000000     -5.000000     11.000000

     1   1 0 0      0.042982      0.021491      0.021491      0.000000
     1   0 1 0      0.260002      0.130001      0.130001      0.000000
     1   0 0 1      0.844708      0.422354      0.422354      0.000000

     2   2 0 0     -2.673486     -3.146202     -3.146202      3.618918
     2   1 1 0     -0.011729     -0.004595     -0.004595     -0.002539
     2   1 0 1     -0.012023     -0.002056     -0.002056     -0.007911
     2   0 2 0     -1.955606     -3.395373     -3.395373      4.835140
     2   0 1 1     -0.137923     -0.029395     -0.029395     -0.079132
     2   0 0 2     -4.141703     -2.896172     -2.896172      1.650641


            General Information
            -------------------
          SCF calculation type: DFT
          Wavefunction type:  closed shell.
          No. of atoms     :     4
          No. of electrons :    10
           Alpha electrons :     5
            Beta electrons :     5
          Charge           :     1
          Spin multiplicity:     1
          Use of symmetry is: off; symmetry adaption is: off
          Maximum number of iterations: 500
          This is a Direct SCF calculation.
          AO basis - number of functions:    50
                     number of shells:    24
          Convergence on energy requested:  1.00D-06
          Convergence on density requested:  1.00D-05
          Convergence on gradient requested:  5.00D-04

              XC Information
              --------------
          PerdewBurkeErnzerhof Exchange Functional  1.000          
            Perdew 1991 LDA Correlation Functional  1.000 local    
           PerdewBurkeErnz. Correlation Functional  1.000 non-local

             Grid Information
             ----------------
          Grid used for XC integration:  medium    
          Radial quadrature: Mura-Knowles        
          Angular quadrature: Lebedev. 
          Tag              B.-S. Rad. Rad. Pts. Rad. Cut. Ang. Pts.
          ---              ---------- --------- --------- ---------
          O                   0.60       49           9.0       434
          H                   0.35       45          12.0       434
          Grid pruning is: on 
          Number of quadrature shells:   184
          Spatial weights used:  Erf1

          Convergence Information
          -----------------------
          Convergence aids based upon iterative change in 
          total energy or number of iterations. 
          Levelshifting, if invoked, occurs when the 
          HOMO/LUMO gap drops below (HL_TOL):  1.00D-02
          DIIS, if invoked, will attempt to extrapolate 
          using up to (NFOCK): 10 stored Fock matrices.

                    Damping( 0%)  Levelshifting(0.5)       DIIS
                  --------------- ------------------- ---------------
          dE  on:    start            ASAP                start   
          dE off:    2 iters        500 iters           500 iters 


      Screening Tolerance Information
      -------------------------------
          Density screening/tol_rho:  1.00D-10
          AO Gaussian exp screening on grid/accAOfunc:  14
          CD Gaussian exp screening on grid/accCDfunc:  20
          XC Gaussian exp screening on grid/accXCfunc:  20
          Schwarz screening/accCoul:  1.00D-08

  texas integral default override: limxmem =             50000000
  texas integral default override: limxmem =             50000000


                            NWChem DFT Gradient Module
                            --------------------------



  charge          =   1.00
  wavefunction    = closed shell

  texas integral default override: limxmem =             50000000
  texas integral default override: limxmem =             50000000


                         DFT ENERGY GRADIENTS

    atom               coordinates                        gradient
                 x          y          z           x          y          z
   1 O      -0.007438  -0.074402  -0.231818   -0.031230  -0.064045  -0.016570
   2 H       0.464377  -1.495005   0.822848   -0.010240   0.023725  -0.009194
   3 H      -1.491015   0.614242   0.591498    0.040382   0.004364   0.000255
   4 H       1.086141   1.475981   0.440198    0.001088   0.035956   0.025509

                 ----------------------------------------
                 |  Time  |  1-e(secs)   |  2-e(secs)   |
                 ----------------------------------------
                 |  CPU   |       0.00   |       0.10   |
                 ----------------------------------------
                 |  WALL  |       0.00   |       0.11   |
                 ----------------------------------------
  no constraints, skipping    0.0000000000000000     

@ Step       Energy      Delta E   Gmax     Grms     Xrms     Xmax   Walltime
@ ---- ---------------- -------- -------- -------- -------- -------- --------
@    0     -76.61508280  0.0D+00  0.03680  0.02505  0.00000  0.00000      1.6
                                                                    



                                Z-matrix (autoz)
                                -------- 

 Units are Angstrom for bonds and degrees for angles

      Type          Name      I     J     K     L     M      Value     Gradient
      ----------- --------  ----- ----- ----- ----- ----- ---------- ----------
    1 Stretch                  1     2                       0.96899   -0.02634
    2 Stretch                  1     3                       0.96900   -0.03096
    3 Stretch                  1     4                       1.06511    0.03680
    4 Bend                     2     1     3               103.97818   -0.00693
    5 Bend                     2     1     4               105.38417   -0.00315
    6 Bend                     3     1     4                90.02276   -0.02648

 Restricting large step in mode    6 eval= 4.8D-02 step= 5.6D-01 new= 3.0D-01
  no constraints, skipping    0.0000000000000000     
  no constraints, skipping    0.0000000000000000     
  no constraints, skipping    0.0000000000000000     
  no constraints, skipping    0.0000000000000000     
  no constraints, skipping    0.0000000000000000     

                                 NWChem DFT Module
                                 -----------------




 Summary of "ao basis" -> "cc-pvdz" (spherical)
 ------------------------------------------------------------------------------
       Tag                 Description            Shells   Functions and Types
 ---------------- ------------------------------  ------  ---------------------
 O                        aug-cc-pvdz                9       23   4s3p2d
 H                        aug-cc-pvdz                5        9   3s2p


  texas integral default override: limxmem =             50000000
  Caching 1-el integrals 

            General Information
            -------------------
          SCF calculation type: DFT
          Wavefunction type:  closed shell.
          No. of atoms     :     4
          No. of electrons :    10
           Alpha electrons :     5
            Beta electrons :     5
          Charge           :     1
          Spin multiplicity:     1
          Use of symmetry is: off; symmetry adaption is: off
          Maximum number of iterations: 500
          This is a Direct SCF calculation.
          AO basis - number of functions:    50
                     number of shells:    24
          Convergence on energy requested:  1.00D-06
          Convergence on density requested:  1.00D-05
          Convergence on gradient requested:  5.00D-04

              XC Information
              --------------
          PerdewBurkeErnzerhof Exchange Functional  1.000          
            Perdew 1991 LDA Correlation Functional  1.000 local    
           PerdewBurkeErnz. Correlation Functional  1.000 non-local

             Grid Information
             ----------------
          Grid used for XC integration:  medium    
          Radial quadrature: Mura-Knowles        
          Angular quadrature: Lebedev. 
          Tag              B.-S. Rad. Rad. Pts. Rad. Cut. Ang. Pts.
          ---              ---------- --------- --------- ---------
          O                   0.60       49           9.0       434
          H                   0.35       45          12.0       434
          Grid pruning is: on 
          Number of quadrature shells:   184
          Spatial weights used:  Erf1

          Convergence Information
          -----------------------
          Convergence aids based upon iterative change in 
          total energy or number of iterations. 
          Levelshifting, if invoked, occurs when the 
          HOMO/LUMO gap drops below (HL_TOL):  1.00D-02
          DIIS, if invoked, will attempt to extrapolate 
          using up to (NFOCK): 10 stored Fock matrices.

                    Damping( 0%)  Levelshifting(0.5)       DIIS
                  --------------- ------------------- ---------------
          dE  on:    start            ASAP                start   
          dE off:    2 iters        500 iters           500 iters 


      Screening Tolerance Information
      -------------------------------
          Density screening/tol_rho:  1.00D-10
          AO Gaussian exp screening on grid/accAOfunc:  14
          CD Gaussian exp screening on grid/accCDfunc:  20
          XC Gaussian exp screening on grid/accXCfunc:  20
          Schwarz screening/accCoul:  1.00D-08


 Loading old vectors from job with title :



   Time after variat. SCF:      1.7
   Time prior to 1st pass:      1.7

 Grid_pts file          = ./h3o-dat.gridpts.00
 Record size in doubles =  12289        No. of grid_pts per rec  =   3070
 Max. records in memory =      3        Max. recs in file   =   4694726


           Memory utilization after 1st SCF pass: 
           Heap Space remaining (MW):       13.07            13067916
          Stack Space remaining (MW):      134.22           134217308

   convergence    iter        energy       DeltaE   RMS-Dens  Diis-err    time
 ---------------- ----- ----------------- --------- --------- ---------  ------
 d= 0,ls=0.0,diis     1    -76.6205508112 -9.02D+01  4.99D-03  4.23D-02     1.9
 d= 0,ls=0.0,diis     2    -76.6253073557 -4.76D-03  8.72D-04  2.75D-03     2.0
 d= 0,ls=0.0,diis     3    -76.6255018124 -1.94D-04  3.69D-04  1.10D-03     2.1
 d= 0,ls=0.0,diis     4    -76.6255827621 -8.09D-05  1.29D-04  2.74D-04     2.2
 d= 0,ls=0.0,diis     5    -76.6256071552 -2.44D-05  8.85D-06  7.85D-07     2.3
 d= 0,ls=0.0,diis     6    -76.6256072290 -7.38D-08  1.07D-06  1.51D-08     2.4


         Total DFT energy =      -76.625607228956
      One electron energy =     -127.818144513849
           Coulomb energy =       46.878263604836
    Exchange-Corr. energy =       -9.287208069492
 Nuclear repulsion energy =       13.601481749549

 Numeric. integr. density =        9.999995957809

     Total iterative time =      0.7s



                       DFT Final Molecular Orbital Analysis
                       ------------------------------------

 Vector    1  Occ=2.000000D+00  E=-1.921279D+01
              MO Center=  9.3D-03,  4.1D-03, -8.2D-02, r^2= 1.5D-02
   Bfn.  Coefficient  Atom+Function         Bfn.  Coefficient  Atom+Function  
  ----- ------------  ---------------      ----- ------------  ---------------
     1      1.005140  1 O  s          

 Vector    2  Occ=2.000000D+00  E=-1.362687D+00
              MO Center=  1.3D-02,  4.3D-02,  7.0D-02, r^2= 5.0D-01
   Bfn.  Coefficient  Atom+Function         Bfn.  Coefficient  Atom+Function  
  ----- ------------  ---------------      ----- ------------  ---------------
     2      0.460521  1 O  s                  3      0.364375  1 O  s          
    42      0.173864  4 H  s                 33      0.163474  3 H  s          
    24      0.159741  2 H  s                  4      0.130215  1 O  s          
     7      0.097919  1 O  pz                34     -0.057505  3 H  s          
    25     -0.055556  2 H  s                 43     -0.055602  4 H  s          

 Vector    3  Occ=2.000000D+00  E=-8.741760D-01
              MO Center=  5.2D-02, -9.3D-02,  6.8D-02, r^2= 7.2D-01
   Bfn.  Coefficient  Atom+Function         Bfn.  Coefficient  Atom+Function  
  ----- ------------  ---------------      ----- ------------  ---------------
     6      0.522836  1 O  py                24     -0.384946  2 H  s          
    42      0.214108  4 H  s                 33      0.198346  3 H  s          
     9      0.161136  1 O  py                 5     -0.143013  1 O  px         
     7     -0.061304  1 O  pz                25     -0.053572  2 H  s          
     8     -0.044951  1 O  px                28     -0.036623  2 H  py         

 Vector    4  Occ=2.000000D+00  E=-8.519799D-01
              MO Center= -3.8D-02,  1.5D-01,  3.1D-02, r^2= 7.1D-01
   Bfn.  Coefficient  Atom+Function         Bfn.  Coefficient  Atom+Function  
  ----- ------------  ---------------      ----- ------------  ---------------
     5      0.533923  1 O  px                33     -0.331321  3 H  s          
    42      0.327015  4 H  s                  8      0.189732  1 O  px         
     6      0.144213  1 O  py                43      0.051539  4 H  s          
    34     -0.050630  3 H  s                  9      0.050111  1 O  py         
    46     -0.037039  4 H  py                19     -0.032900  1 O  d -2       

 Vector    5  Occ=2.000000D+00  E=-7.026017D-01
              MO Center=  7.1D-03, -3.1D-03, -1.6D-01, r^2= 6.3D-01
   Bfn.  Coefficient  Atom+Function         Bfn.  Coefficient  Atom+Function  
  ----- ------------  ---------------      ----- ------------  ---------------
     7      0.611822  1 O  pz                10      0.351491  1 O  pz         
     3     -0.278251  1 O  s                  2     -0.146187  1 O  s          
    24      0.127915  2 H  s                 33      0.115522  3 H  s          
    42      0.113108  4 H  s                  6      0.070727  1 O  py         
     9      0.038948  1 O  py                13      0.038605  1 O  pz         

 Vector    6  Occ=0.000000D+00  E=-3.126610D-01
              MO Center= -3.6D-02,  1.2D-01,  4.5D-01, r^2= 3.2D+00
   Bfn.  Coefficient  Atom+Function         Bfn.  Coefficient  Atom+Function  
  ----- ------------  ---------------      ----- ------------  ---------------
     3      0.540908  1 O  s                 34     -0.324144  3 H  s          
    25     -0.311019  2 H  s                 43     -0.273251  4 H  s          
     2      0.258227  1 O  s                  7      0.222464  1 O  pz         
    24     -0.197664  2 H  s                 33     -0.192175  3 H  s          
    10      0.163354  1 O  pz                42     -0.161406  4 H  s          

 Vector    7  Occ=0.000000D+00  E=-2.263349D-01
              MO Center= -4.3D-01,  2.8D-01,  4.0D-01, r^2= 3.0D+00
   Bfn.  Coefficient  Atom+Function         Bfn.  Coefficient  Atom+Function  
  ----- ------------  ---------------      ----- ------------  ---------------
    34      0.800861  3 H  s                 35      0.535210  3 H  s          
    43     -0.465127  4 H  s                  5      0.421012  1 O  px         
    25     -0.347743  2 H  s                  8      0.333439  1 O  px         
    33      0.320538  3 H  s                 44     -0.308076  4 H  s          
    26     -0.244007  2 H  s                 42     -0.194012  4 H  s          

 Vector    8  Occ=0.000000D+00  E=-2.212058D-01
              MO Center=  5.1D-01, -3.9D-02,  4.4D-01, r^2= 3.2D+00
   Bfn.  Coefficient  Atom+Function         Bfn.  Coefficient  Atom+Function  
  ----- ------------  ---------------      ----- ------------  ---------------
    25      0.680734  2 H  s                 43     -0.649965  4 H  s          
    26      0.495774  2 H  s                 44     -0.486090  4 H  s          
     6      0.417055  1 O  py                 9      0.318756  1 O  py         
    24      0.264991  2 H  s                 42     -0.245740  4 H  s          
    32      0.108488  2 H  pz                12      0.102400  1 O  py         

 Vector    9  Occ=0.000000D+00  E=-1.204753D-01
              MO Center= -1.6D-02,  1.2D-01, -1.5D-01, r^2= 5.6D+00
   Bfn.  Coefficient  Atom+Function         Bfn.  Coefficient  Atom+Function  
  ----- ------------  ---------------      ----- ------------  ---------------
     4      1.733051  1 O  s                 13      1.263881  1 O  pz         
    25     -0.908414  2 H  s                 34     -0.680253  3 H  s          
    43     -0.606095  4 H  s                  3      0.259685  1 O  s          
    44     -0.244743  4 H  s                  7     -0.229859  1 O  pz         
    35     -0.157953  3 H  s                 10     -0.151435  1 O  pz         

 Vector   10  Occ=0.000000D+00  E=-1.135935D-01
              MO Center= -9.5D-02, -3.7D-01,  9.0D-02, r^2= 7.1D+00
   Bfn.  Coefficient  Atom+Function         Bfn.  Coefficient  Atom+Function  
  ----- ------------  ---------------      ----- ------------  ---------------
    35      1.051781  3 H  s                 44     -1.021240  4 H  s          
    43      0.802443  4 H  s                 34     -0.750256  3 H  s          
    11     -0.601477  1 O  px                30     -0.283830  2 H  px         
    33     -0.246839  3 H  s                 42      0.241123  4 H  s          
    12     -0.212594  1 O  py                40     -0.151388  3 H  py         

 Vector   11  Occ=0.000000D+00  E=-1.074672D-01
              MO Center=  1.4D-01, -1.8D-01, -2.5D-02, r^2= 7.0D+00
   Bfn.  Coefficient  Atom+Function         Bfn.  Coefficient  Atom+Function  
  ----- ------------  ---------------      ----- ------------  ---------------
    26      1.170700  2 H  s                 25     -0.912916  2 H  s          
    12     -0.613988  1 O  py                34      0.494104  3 H  s          
    35     -0.486396  3 H  s                 43      0.408787  4 H  s          
    44     -0.345866  4 H  s                 24     -0.313514  2 H  s          
    40     -0.244154  3 H  py                11      0.208443  1 O  px         

 Vector   12  Occ=0.000000D+00  E=-8.448261D-02
              MO Center= -8.3D-02,  7.5D-01,  5.3D-01, r^2= 1.1D+01
   Bfn.  Coefficient  Atom+Function         Bfn.  Coefficient  Atom+Function  
  ----- ------------  ---------------      ----- ------------  ---------------
    44      0.774621  4 H  s                 35      0.715117  3 H  s          
     4     -0.571139  1 O  s                 43     -0.488484  4 H  s          
    34     -0.400822  3 H  s                  3      0.239869  1 O  s          
    42     -0.213022  4 H  s                 26      0.209650  2 H  s          
    33     -0.190654  3 H  s                 25     -0.175918  2 H  s          

 Vector   13  Occ=0.000000D+00  E=-3.789166D-02
              MO Center=  2.0D-01, -5.4D-01,  5.3D-01, r^2= 1.1D+01
   Bfn.  Coefficient  Atom+Function         Bfn.  Coefficient  Atom+Function  
  ----- ------------  ---------------      ----- ------------  ---------------
    26      2.769425  2 H  s                 35     -1.273974  3 H  s          
    44     -1.181053  4 H  s                 12      1.021448  1 O  py         
    25      0.876724  2 H  s                  4     -0.653622  1 O  s          
    32     -0.447735  2 H  pz                40      0.391275  3 H  py         
    11     -0.342281  1 O  px                49      0.293616  4 H  py         

 Vector   14  Occ=0.000000D+00  E=-3.342003D-02
              MO Center= -9.3D-02,  4.7D-01,  4.3D-01, r^2= 1.2D+01
   Bfn.  Coefficient  Atom+Function         Bfn.  Coefficient  Atom+Function  
  ----- ------------  ---------------      ----- ------------  ---------------
    44     -2.833098  4 H  s                 35      2.725958  3 H  s          
    11      1.278894  1 O  px                34      0.730731  3 H  s          
    43     -0.724887  4 H  s                 12      0.399703  1 O  py         
    41     -0.358827  3 H  pz                30      0.343293  2 H  px         
    50      0.344330  4 H  pz                48      0.193134  4 H  px         

 Vector   15  Occ=0.000000D+00  E=-1.401329D-02
              MO Center= -3.9D-02, -8.4D-02, -7.9D-02, r^2= 8.3D+00
   Bfn.  Coefficient  Atom+Function         Bfn.  Coefficient  Atom+Function  
  ----- ------------  ---------------      ----- ------------  ---------------
    26      2.167978  2 H  s                 12      1.840643  1 O  py         
     4      1.717363  1 O  s                 35     -1.394021  3 H  s          
    44     -1.193424  4 H  s                 34     -0.920367  3 H  s          
    43     -0.863160  4 H  s                 11     -0.665330  1 O  px         
    32      0.557765  2 H  pz                40     -0.325680  3 H  py         

 Vector   16  Occ=0.000000D+00  E=-8.395452D-03
              MO Center=  1.3D-01,  2.5D-02, -1.6D-01, r^2= 6.1D+00
   Bfn.  Coefficient  Atom+Function         Bfn.  Coefficient  Atom+Function  
  ----- ------------  ---------------      ----- ------------  ---------------
     4      4.415413  1 O  s                 43     -1.506054  4 H  s          
    25     -1.411170  2 H  s                 34     -1.063636  3 H  s          
    44     -0.809819  4 H  s                 26     -0.712129  2 H  s          
    11      0.701038  1 O  px                41      0.679508  3 H  pz         
    35      0.514018  3 H  s                 50      0.311137  4 H  pz         

 Vector   17  Occ=0.000000D+00  E=-6.902807D-03
              MO Center= -1.2D-01,  3.2D-01, -1.6D-01, r^2= 6.5D+00
   Bfn.  Coefficient  Atom+Function         Bfn.  Coefficient  Atom+Function  
  ----- ------------  ---------------      ----- ------------  ---------------
    44      1.700486  4 H  s                 35     -1.607197  3 H  s          
     4      1.549167  1 O  s                 11     -1.523229  1 O  px         
    34     -0.959471  3 H  s                 50      0.729181  4 H  pz         
    12     -0.701254  1 O  py                25     -0.570529  2 H  s          
    30      0.483952  2 H  px                26     -0.432865  2 H  s          

 Vector   18  Occ=0.000000D+00  E= 1.167183D-01
              MO Center=  5.3D-03, -2.5D-02, -2.4D-01, r^2= 8.0D+00
   Bfn.  Coefficient  Atom+Function         Bfn.  Coefficient  Atom+Function  
  ----- ------------  ---------------      ----- ------------  ---------------
     4      8.645865  1 O  s                 43     -3.032199  4 H  s          
    25     -2.975022  2 H  s                 34     -2.961192  3 H  s          
    13      2.755861  1 O  pz                10      0.632531  1 O  pz         
    32     -0.522307  2 H  pz                50     -0.510058  4 H  pz         
    26     -0.501921  2 H  s                 35     -0.480481  3 H  s          

 Vector   19  Occ=0.000000D+00  E= 1.806553D-01
              MO Center= -2.0D-02, -4.7D-02,  3.3D-01, r^2= 5.0D+00
   Bfn.  Coefficient  Atom+Function         Bfn.  Coefficient  Atom+Function  
  ----- ------------  ---------------      ----- ------------  ---------------
    30      1.639312  2 H  px                40     -1.403455  3 H  py         
    49      0.944349  4 H  py                48     -0.905706  4 H  px         
    11     -0.767169  1 O  px                41      0.506561  3 H  pz         
    35     -0.493325  3 H  s                 31      0.412575  2 H  py         
    34     -0.406752  3 H  s                 44      0.295249  4 H  s          

 Vector   20  Occ=0.000000D+00  E= 1.945867D-01
              MO Center=  8.1D-02, -6.0D-02,  3.9D-01, r^2= 7.3D+00
   Bfn.  Coefficient  Atom+Function         Bfn.  Coefficient  Atom+Function  
  ----- ------------  ---------------      ----- ------------  ---------------
    12      3.278817  1 O  py                26      2.244553  2 H  s          
    25      1.418949  2 H  s                 35     -1.258820  3 H  s          
    32     -1.231717  2 H  pz                11     -1.127870  1 O  px         
    44     -1.060027  4 H  s                 41      0.881519  3 H  pz         
    34     -0.864616  3 H  s                 49     -0.831828  4 H  py         

 Vector   21  Occ=0.000000D+00  E= 2.043477D-01
              MO Center= -1.1D-01,  4.7D-01,  3.4D-01, r^2= 6.9D+00
   Bfn.  Coefficient  Atom+Function         Bfn.  Coefficient  Atom+Function  
  ----- ------------  ---------------      ----- ------------  ---------------
    11      3.020069  1 O  px                44     -2.093362  4 H  s          
    35      1.939097  3 H  s                 50      1.195462  4 H  pz         
    12      1.146794  1 O  py                40     -1.130693  3 H  py         
    43     -1.119409  4 H  s                 34      1.008156  3 H  s          
    41     -1.007608  3 H  pz                48     -0.880055  4 H  px         

 Vector   22  Occ=0.000000D+00  E= 2.311914D-01
              MO Center= -7.7D-01, -3.6D-02,  3.2D-01, r^2= 5.2D+00
   Bfn.  Coefficient  Atom+Function         Bfn.  Coefficient  Atom+Function  
  ----- ------------  ---------------      ----- ------------  ---------------
    39      2.397655  3 H  px                34      1.887567  3 H  s          
     4     -1.556203  1 O  s                 43     -1.453869  4 H  s          
     3     -1.397677  1 O  s                 48      1.132464  4 H  px         
    11     -0.870192  1 O  px                31      0.861617  2 H  py         
    32     -0.739172  2 H  pz                25      0.641431  2 H  s          

 Vector   23  Occ=0.000000D+00  E= 2.345844D-01
              MO Center=  4.7D-01, -4.8D-01,  3.4D-01, r^2= 5.2D+00
   Bfn.  Coefficient  Atom+Function         Bfn.  Coefficient  Atom+Function  
  ----- ------------  ---------------      ----- ------------  ---------------
    25      1.941479  2 H  s                 31      1.854466  2 H  py         
    34     -1.813495  3 H  s                 39     -1.575250  3 H  px         
     4     -1.463212  1 O  s                 48     -1.390182  4 H  px         
     3     -1.240077  1 O  s                 30     -1.023900  2 H  px         
    43      0.969629  4 H  s                 32     -0.859173  2 H  pz         

 Vector   24  Occ=0.000000D+00  E= 2.409049D-01
              MO Center=  4.2D-01,  5.6D-01,  1.1D-01, r^2= 5.2D+00
   Bfn.  Coefficient  Atom+Function         Bfn.  Coefficient  Atom+Function  
  ----- ------------  ---------------      ----- ------------  ---------------
    43     -2.366271  4 H  s                 49      2.254672  4 H  py         
[...]
   192     -5.243828  2 H  s                319     -5.245746  3 H  s          

 Vector  563  Occ=0.000000D+00  E= 4.170772D+01
              MO Center= -1.5D-01, -2.0D-01,  2.4D-01, r^2= 8.0D-01
   Bfn.  Coefficient  Atom+Function         Bfn.  Coefficient  Atom+Function  
  ----- ------------  ---------------      ----- ------------  ---------------
    16     22.892314  1 O  py                15    -19.258883  1 O  px         
   207     15.335802  2 H  py               333    -14.224148  3 H  px         
    22    -13.708554  1 O  py                21     11.532690  1 O  px         
    44     10.814955  1 O  d  2             191     -9.851257  2 H  s          
   318      8.625180  3 H  s                 54     -8.165868  1 O  d  2       

 Vector  564  Occ=0.000000D+00  E= 4.170799D+01
              MO Center=  1.7D-01,  3.4D-01,  1.6D-01, r^2= 8.0D-01
   Bfn.  Coefficient  Atom+Function         Bfn.  Coefficient  Atom+Function  
  ----- ------------  ---------------      ----- ------------  ---------------
    15     23.057094  1 O  px                16     19.002086  1 O  py         
   461     13.936380  4 H  py                21    -13.808400  1 O  px         
   460     13.070680  4 H  px                40     12.642832  1 O  d -2       
    22    -11.380024  1 O  py               333     11.110374  3 H  px         
   445     10.665656  4 H  s                 50     -9.824884  1 O  d -2       

 Vector  565  Occ=0.000000D+00  E= 1.063794D+02
              MO Center=  2.3D-03,  3.7D-02, -7.2D-03, r^2= 1.2D-01
   Bfn.  Coefficient  Atom+Function         Bfn.  Coefficient  Atom+Function  
  ----- ------------  ---------------      ----- ------------  ---------------
     2     31.076684  1 O  s                  1     27.829395  1 O  s          
     6      9.385595  1 O  s                  4     -9.275521  1 O  s          
     7     -9.202487  1 O  s                  3      8.215896  1 O  s          
     8     -5.067401  1 O  s                192     -3.737519  2 H  s          
   319     -3.737612  3 H  s                446     -3.737958  4 H  s          


 center of mass
 --------------
 x =   0.00638374 y =   0.08445951 z =   0.08384416

 moments of inertia (a.u.)
 ------------------
           5.568569149072           0.011607777011           0.081101556805
           0.011607777011           5.646330820293           0.560448327197
           0.081101556805           0.560448327197           9.513256072879

     Multipole analysis of the density
     ---------------------------------

     L   x y z        total         alpha         beta         nuclear
     -   - - -        -----         -----         ----         -------
     0   0 0 0      1.000000     -5.000000     -5.000000     11.000000

     1   1 0 0      0.019454     -0.032404     -0.032404      0.084263
     1   0 1 0      0.174593     -0.425654     -0.425654      1.025901
     1   0 0 1      0.718021     -0.442814     -0.442814      1.603650

     2   2 0 0     -1.895071     -3.326974     -3.326974      4.758878
     2   1 1 0     -0.005384     -0.000714     -0.000714     -0.003955
     2   1 0 1     -0.047432      0.011421      0.011421     -0.070273
     2   0 2 0     -1.923845     -3.349299     -3.349299      4.774752
     2   0 1 1     -0.298793      0.061062      0.061062     -0.420917
     2   0 0 2     -4.364869     -2.670842     -2.670842      0.976816

 Line search: 
     step= 1.00 grad=-2.8D-07 hess= 6.6D-07 energy=    -76.660847 mode=accept  
 new step= 1.00                   predicted energy=    -76.660847
  no constraints, skipping    0.0000000000000000     
  no constraints, skipping    0.0000000000000000     
  no constraints, skipping    0.0000000000000000     

          --------
          Step   1
          --------


                         Geometry "geometry" -> "geometry"
                         ---------------------------------

 Output coordinates in angstroms (scale by  1.889725989 to convert to a.u.)

  No.       Tag          Charge          X              Y              Z
 ---- ---------------- ---------- -------------- -------------- --------------
    1 O                    8.0000     0.00243405     0.03818274    -0.00144215
    2 H                    1.0000     0.27483353    -0.81685908     0.40849817
    3 H                    1.0000    -0.90775703     0.30087579     0.27406223
    4 H                    1.0000     0.65804105     0.75340473     0.17759166

      Atomic Mass 
      ----------- 

      O                 15.994910
      H                  1.007825


 Effective nuclear repulsion energy (a.u.)      13.8450873190

            Nuclear Dipole moment (a.u.) 
            ----------------------------
        X                 Y               Z
 ---------------- ---------------- ----------------
     0.0842628034     1.0259007464     1.6036495891


                                 NWChem DFT Module
                                 -----------------




 Summary of "ao basis" -> "cc-pv6z" (spherical)
 ------------------------------------------------------------------------------
       Tag                 Description            Shells   Functions and Types
 ---------------- ------------------------------  ------  ---------------------
 O                        aug-cc-pv6z               35      189   8s7p6d5f4g3h2i
 H                        aug-cc-pv6z               27      127   7s6p5d4f3g2h



  The DFT is already converged 

         Total DFT energy =    -76.660846618347


            General Information
            -------------------
          SCF calculation type: DFT
          Wavefunction type:  closed shell.
          No. of atoms     :     4
          No. of electrons :    10
           Alpha electrons :     5
            Beta electrons :     5
          Charge           :     1
          Spin multiplicity:     1
          Use of symmetry is: off; symmetry adaption is: off
          Maximum number of iterations: 500
          This is a Direct SCF calculation.
          AO basis - number of functions:   570
                     number of shells:   116
          Convergence on energy requested:  1.00D-06
          Convergence on density requested:  1.00D-05
          Convergence on gradient requested:  5.00D-04

              XC Information
              --------------
          PerdewBurkeErnzerhof Exchange Functional  1.000          
            Perdew 1991 LDA Correlation Functional  1.000 local    
           PerdewBurkeErnz. Correlation Functional  1.000 non-local

             Grid Information
             ----------------
          Grid used for XC integration:  medium    
          Radial quadrature: Mura-Knowles        
          Angular quadrature: Lebedev. 
          Tag              B.-S. Rad. Rad. Pts. Rad. Cut. Ang. Pts.
          ---              ---------- --------- --------- ---------
          O                   0.60       49          12.0       434
          H                   0.35       45          14.0       434
          Grid pruning is: on 
          Number of quadrature shells:   184
          Spatial weights used:  Erf1

          Convergence Information
          -----------------------
          Convergence aids based upon iterative change in 
          total energy or number of iterations. 
          Levelshifting, if invoked, occurs when the 
          HOMO/LUMO gap drops below (HL_TOL):  1.00D-02
          DIIS, if invoked, will attempt to extrapolate 
          using up to (NFOCK): 10 stored Fock matrices.

                    Damping( 0%)  Levelshifting(0.5)       DIIS
                  --------------- ------------------- ---------------
          dE  on:    start            ASAP                start   
          dE off:    2 iters        500 iters           500 iters 


      Screening Tolerance Information
      -------------------------------
          Density screening/tol_rho:  1.00D-10
          AO Gaussian exp screening on grid/accAOfunc:  14
          CD Gaussian exp screening on grid/accCDfunc:  20
          XC Gaussian exp screening on grid/accXCfunc:  20
          Schwarz screening/accCoul:  1.00D-08

  texas integral default override: limxmem =             50000000
  texas integral default override: limxmem =             50000000


                            NWChem DFT Gradient Module
                            --------------------------



  charge          =   1.00
  wavefunction    = closed shell

  texas integral default override: limxmem =             50000000
  texas integral default override: limxmem =             50000000


                         DFT ENERGY GRADIENTS

    atom               coordinates                        gradient
                 x          y          z           x          y          z
   1 O       0.004600   0.072155  -0.002725   -0.000013  -0.000035  -0.000019
   2 H       0.519360  -1.543640   0.771950    0.000005  -0.000008   0.000004
   3 H      -1.715412   0.568573   0.517903   -0.000013   0.000013   0.000005
   4 H       1.243517   1.423729   0.335600    0.000021   0.000030   0.000010

                 ----------------------------------------
                 |  Time  |  1-e(secs)   |  2-e(secs)   |
                 ----------------------------------------
                 |  CPU   |       0.25   |      82.07   |
                 ----------------------------------------
                 |  WALL  |       0.32   |     111.47   |
                 ----------------------------------------
  no constraints, skipping    0.0000000000000000     

  Step       Energy      Delta E   Gmax     Grms     Xrms     Xmax   Walltime
  ---- ---------------- -------- -------- -------- -------- -------- --------
@    1     -76.66084662  3.8D-07  0.00004  0.00002  0.00023  0.00047  10160.0
                                     ok       ok       ok       ok  



                                Z-matrix (autoz)
                                -------- 

 Units are Angstrom for bonds and degrees for angles

      Type          Name      I     J     K     L     M      Value     Gradient
      ----------- --------  ----- ----- ----- ----- ----- ---------- ----------
    1 Stretch                  1     2                       0.98658    0.00001
    2 Stretch                  1     3                       0.98659    0.00002
    3 Stretch                  1     4                       0.98662    0.00004
    4 Bend                     2     1     3               111.68191    0.00000
    5 Bend                     2     1     4               111.67843   -0.00000
    6 Bend                     3     1     4               111.67545   -0.00001


      ----------------------
      Optimization converged
      ----------------------


  Step       Energy      Delta E   Gmax     Grms     Xrms     Xmax   Walltime
  ---- ---------------- -------- -------- -------- -------- -------- --------
@    1     -76.66084662  3.8D-07  0.00004  0.00002  0.00023  0.00047  10160.0
                                     ok       ok       ok       ok  



                                Z-matrix (autoz)
                                -------- 

 Units are Angstrom for bonds and degrees for angles

      Type          Name      I     J     K     L     M      Value     Gradient
      ----------- --------  ----- ----- ----- ----- ----- ---------- ----------
    1 Stretch                  1     2                       0.98658    0.00001
    2 Stretch                  1     3                       0.98659    0.00002
    3 Stretch                  1     4                       0.98662    0.00004
    4 Bend                     2     1     3               111.68191    0.00000
    5 Bend                     2     1     4               111.67843   -0.00000
    6 Bend                     3     1     4               111.67545   -0.00001



                         Geometry "geometry" -> "geometry"
                         ---------------------------------

 Output coordinates in angstroms (scale by  1.889725989 to convert to a.u.)

  No.       Tag          Charge          X              Y              Z
 ---- ---------------- ---------- -------------- -------------- --------------
    1 O                    8.0000     0.00243405     0.03818274    -0.00144215
    2 H                    1.0000     0.27483353    -0.81685908     0.40849817
    3 H                    1.0000    -0.90775703     0.30087579     0.27406223
    4 H                    1.0000     0.65804105     0.75340473     0.17759166

      Atomic Mass 
      ----------- 

      O                 15.994910
      H                  1.007825


 Effective nuclear repulsion energy (a.u.)      13.8450873190

            Nuclear Dipole moment (a.u.) 
            ----------------------------
        X                 Y               Z
 ---------------- ---------------- ----------------
     0.0842628034     1.0259007464     1.6036495891


                Final and change from initial internal coordinates
                --------------------------------------------------



                                Z-matrix (autoz)
                                -------- 

 Units are Angstrom for bonds and degrees for angles

      Type          Name      I     J     K     L     M      Value       Change
      ----------- --------  ----- ----- ----- ----- ----- ---------- ----------
    1 Stretch                  1     2                       0.98658   -0.00027
    2 Stretch                  1     3                       0.98659   -0.00026
    3 Stretch                  1     4                       0.98662   -0.00021
    4 Bend                     2     1     3               111.68191    0.00204
    5 Bend                     2     1     4               111.67843   -0.00010
    6 Bend                     3     1     4               111.67545   -0.00484

 ==============================================================================
                                internuclear distances
 ------------------------------------------------------------------------------
       center one      |      center two      | atomic units |  angstroms
 ------------------------------------------------------------------------------
    2 H                |   1 O                |     1.86437  |     0.98658
    3 H                |   1 O                |     1.86438  |     0.98659
    4 H                |   1 O                |     1.86444  |     0.98662
 ------------------------------------------------------------------------------
                         number of included internuclear distances:          3
 ==============================================================================



 ==============================================================================
                                 internuclear angles
 ------------------------------------------------------------------------------
        center 1       |       center 2       |       center 3       |  degrees
 ------------------------------------------------------------------------------
    2 H                |   1 O                |   3 H                |   111.68
    2 H                |   1 O                |   4 H                |   111.68
    3 H                |   1 O                |   4 H                |   111.68
 ------------------------------------------------------------------------------
                            number of included internuclear angles:          3
 ==============================================================================




 Task  times  cpu:     9444.1s     wall:     9525.2s


                                NWChem Input Module
                                -------------------


 Summary of allocated global arrays
-----------------------------------
  No active global arrays


MA_summarize_allocated_blocks: starting scan ...
MA_summarize_allocated_blocks: scan completed: 0 heap blocks, 0 stack blocks
MA usage statistics:

	allocation statistics:
					      heap	     stack
					      ----	     -----
	current number of blocks	         0	         0
	maximum number of blocks	        23	        54
	current total bytes		         0	         0
	maximum total bytes		    398696	 572586024
	maximum total K-bytes		       399	    572587
	maximum total M-bytes		         1	       573


                                     CITATION
                                     --------
                Please cite the following reference when publishing
                           results obtained with NWChem:

          E. Apra, E. J. Bylaska, W. A. de Jong, N. Govind, K. Kowalski,
       T. P. Straatsma, M. Valiev, H. J. J. van Dam, Y. Alexeev, J. Anchell,
       V. Anisimov, F. W. Aquino, R. Atta-Fynn, J. Autschbach, N. P. Bauman,
     J. C. Becca, D. E. Bernholdt, K. Bhaskaran-Nair, S. Bogatko, P. Borowski,
         J. Boschen, J. Brabec, A. Bruner, E. Cauet, Y. Chen, G. N. Chuev,
      C. J. Cramer, J. Daily, M. J. O. Deegan, T. H. Dunning Jr., M. Dupuis,
   K. G. Dyall, G. I. Fann, S. A. Fischer, A. Fonari, H. Fruchtl, L. Gagliardi,
      J. Garza, N. Gawande, S. Ghosh, K. Glaesemann, A. W. Gotz, J. Hammond,
       V. Helms, E. D. Hermes, K. Hirao, S. Hirata, M. Jacquelin, L. Jensen,
   B. G. Johnson, H. Jonsson, R. A. Kendall, M. Klemm, R. Kobayashi, V. Konkov,
      S. Krishnamoorthy, M. Krishnan, Z. Lin, R. D. Lins, R. J. Littlefield,
      A. J. Logsdail, K. Lopata, W. Ma, A. V. Marenich, J. Martin del Campo,
   D. Mejia-Rodriguez, J. E. Moore, J. M. Mullin, T. Nakajima, D. R. Nascimento,
    J. A. Nichols, P. J. Nichols, J. Nieplocha, A. Otero-de-la-Roza, B. Palmer,
    A. Panyala, T. Pirojsirikul, B. Peng, R. Peverati, J. Pittner, L. Pollack,
   R. M. Richard, P. Sadayappan, G. C. Schatz, W. A. Shelton, D. W. Silverstein,
   D. M. A. Smith, T. A. Soares, D. Song, M. Swart, H. L. Taylor, G. S. Thomas,
            V. Tipparaju, D. G. Truhlar, K. Tsemekhman, T. Van Voorhis,
      A. Vazquez-Mayagoitia, P. Verma, O. Villa, A. Vishnu, K. D. Vogiatzis,
        D. Wang, J. H. Weare, M. J. Williamson, T. L. Windus, K. Wolinski,
        A. T. Wong, Q. Wu, C. Yang, Q. Yu, M. Zacharias, Z. Zhang, Y. Zhao,
                                and R. J. Harrison
                        "NWChem: Past, present, and future
                         J. Chem. Phys. 152, 184102 (2020)
                               doi:10.1063/5.0004997

                                      AUTHORS
                                      -------
  E. Apra, E. J. Bylaska, N. Govind, K. Kowalski, M. Valiev, D. Mejia-Rodriguez,
       A. Kunitsa, N. P. Bauman, A. Panyala, W. A. de Jong, T. P. Straatsma,
        H. J. J. van Dam, D. Wang, T. L. Windus, J. Hammond, J. Autschbach,
    K. Bhaskaran-Nair, J. Brabec, K. Lopata, S. A. Fischer, S. Krishnamoorthy,
     M. Jacquelin, W. Ma, M. Klemm, O. Villa, Y. Chen, V. Anisimov, F. Aquino,
    S. Hirata, M. T. Hackler, Eric Hermes, L. Jensen, J. E. Moore, J. C. Becca,
      V. Konjkov, T. Risthaus, M. Malagoli, A. Marenich, A. Otero-de-la-Roza,
        J. Mullin, P. Nichols, R. Peverati, J. Pittner, Y. Zhao, P.-D. Fan,
        A. Fonari, M. J. Williamson, R. J. Harrison, J. R. Rehr, M. Dupuis,
     D. Silverstein, D. M. A. Smith, J. Nieplocha, V. Tipparaju, M. Krishnan,
     B. E. Van Kuiken, A. Vazquez-Mayagoitia, M. Swart, Q. Wu, T. Van Voorhis,
     A. A. Auer, M. Nooijen, L. D. Crosby, E. Brown, G. Cisneros, G. I. Fann,
   H. Fruchtl, J. Garza, K. Hirao, R. A. Kendall, J. A. Nichols, K. Tsemekhman,
    K. Wolinski, J. Anchell, D. E. Bernholdt, P. Borowski, T. Clark, D. Clerc,
   H. Dachsel, M. J. O. Deegan, K. Dyall, D. Elwood, E. Glendening, M. Gutowski,
   A. C. Hess, J. Jaffe, B. G. Johnson, J. Ju, R. Kobayashi, R. Kutteh, Z. Lin,
   R. Littlefield, X. Long, B. Meng, T. Nakajima, S. Niu, L. Pollack, M. Rosing,
   K. Glaesemann, G. Sandrone, M. Stave, H. Taylor, G. Thomas, J. H. van Lenthe,
                               A. T. Wong, Z. Zhang.

 Total times  cpu:    10049.0s     wall:    10160.2s
