 argument  1 = /home/hvandam/nwchem-1-srp-hpc/QA/tests/ZSM-5/nwc/oh-dft-pbe.nw



============================== echo of input deck ==============================
echo
start oh-dat

memory heap 100 mb stack 500 mb global 1024 mb

geometry
  #load ../xyz/oh-.xyz
  load oh-.xyz
end

charge -1

basis "cc-pvdz" spherical
  * library cc-pvdz
end
basis "cc-pvtz" spherical
  * library cc-pvtz
end
basis "cc-pvqz" spherical
  * library cc-pvqz
end
basis "cc-pv5z" spherical
  * library cc-pv5z
end
basis "cc-pv6z" spherical
  * library cc-pv6z
end

dft
  direct
  # select PBE functional following https://doi.org/10.1002/aic.15517
  xc xpbe96 cpbe96
end

set int:txs:limxmem              50000000

set "ao basis" "cc-pvdz"
task dft optimize

set "ao basis" "cc-pvtz"
task dft optimize

set "ao basis" "cc-pvqz"
task dft optimize

set "ao basis" "cc-pv5z"
task dft optimize

set "ao basis" "cc-pv6z"
task dft optimize
================================================================================


                                         
                                         


             Northwest Computational Chemistry Package (NWChem) 7.0.1
             --------------------------------------------------------


                    Environmental Molecular Sciences Laboratory
                       Pacific Northwest National Laboratory
                                Richland, WA 99352

                              Copyright (c) 1994-2020
                       Pacific Northwest National Laboratory
                            Battelle Memorial Institute

             NWChem is an open-source computational chemistry package
                        distributed under the terms of the
                      Educational Community License (ECL) 2.0
             A copy of the license is included with this distribution
                              in the LICENSE.TXT file

                                  ACKNOWLEDGMENT
                                  --------------

            This software and its documentation were developed at the
            EMSL at Pacific Northwest National Laboratory, a multiprogram
            national laboratory, operated for the U.S. Department of Energy
            by Battelle under Contract Number DE-AC05-76RL01830. Support
            for this work was provided by the Department of Energy Office
            of Biological and Environmental Research, Office of Basic
            Energy Sciences, and the Office of Advanced Scientific Computing.


           Job information
           ---------------

    hostname        = node005
    program         = /home/hvandam/nwchem-1-srp-hpc/bin/LINUX64/nwchem
    date            = Thu Mar  9 14:33:50 2023

    compiled        = Tue_Mar_07_06:00:48_2023
    source          = /home/hvandam/nwchem-1-srp-hpc
    nwchem branch   = 7.0.0
    nwchem revision = nwchem_on_git-4102-gb5ef8e9
    ga revision     = 5.8.1
    use scalapack   = F
    input           = /home/hvandam/nwchem-1-srp-hpc/QA/tests/ZSM-5/nwc/oh-dft-pbe.nw
    prefix          = oh-dat.
    data base       = ./oh-dat.db
    status          = startup
    nproc           =       16
    time left       =     -1s



           Memory information
           ------------------

    heap     =   13107194 doubles =    100.0 Mbytes
    stack    =   65535999 doubles =    500.0 Mbytes
    global   =  134217728 doubles =   1024.0 Mbytes (distinct from heap & stack)
    total    =  212860921 doubles =   1624.0 Mbytes
    verify   = yes
    hardfail = no 


           Directory information
           ---------------------

  0 permanent = .
  0 scratch   = .




                                NWChem Input Module
                                -------------------



 Scaling coordinates for geometry "geometry" by  1.889725989
 (inverse scale =  0.529177249)

 ORDER OF PRIMARY AXIS IS BEING SET TO 4
 C4V symmetry detected

          ------
          auto-z
          ------
  no constraints, skipping    0.0000000000000000     
  no constraints, skipping    0.0000000000000000     


                             Geometry "geometry" -> ""
                             -------------------------

 Output coordinates in angstroms (scale by  1.889725989 to convert to a.u.)

  No.       Tag          Charge          X              Y              Z
 ---- ---------------- ---------- -------------- -------------- --------------
    1 O                    8.0000     0.00000000     0.00000000     0.10792685
    2 H                    1.0000     0.00000000     0.00000000    -0.86341483

      Atomic Mass 
      ----------- 

      O                 15.994910
      H                  1.007825


 Effective nuclear repulsion energy (a.u.)       4.3583200974

            Nuclear Dipole moment (a.u.) 
            ----------------------------
        X                 Y               Z
 ---------------- ---------------- ----------------
     0.0000000000     0.0000000000     0.0000000000

      Symmetry information
      --------------------

 Group name             C4v       
 Group number             18
 Group order               8
 No. of unique centers     2

      Symmetry unique atoms

     1    2



                                Z-matrix (autoz)
                                -------- 

 Units are Angstrom for bonds and degrees for angles

      Type          Name      I     J     K     L     M      Value
      ----------- --------  ----- ----- ----- ----- ----- ----------
    1 Stretch                  1     2                       0.97134


            XYZ format geometry
            -------------------
     2
 geometry
 O                     0.00000000     0.00000000     0.10792685
 H                     0.00000000     0.00000000    -0.86341483

 ==============================================================================
                                internuclear distances
 ------------------------------------------------------------------------------
       center one      |      center two      | atomic units |  angstroms
 ------------------------------------------------------------------------------
    2 H                |   1 O                |     1.83557  |     0.97134
 ------------------------------------------------------------------------------
                         number of included internuclear distances:          1
 ==============================================================================





 Summary of "cc-pvdz" -> "" (spherical)
 ------------------------------------------------------------------------------
       Tag                 Description            Shells   Functions and Types
 ---------------- ------------------------------  ------  ---------------------
 *                          cc-pvdz                   on all atoms 




 Summary of "cc-pvtz" -> "" (spherical)
 ------------------------------------------------------------------------------
       Tag                 Description            Shells   Functions and Types
 ---------------- ------------------------------  ------  ---------------------
 *                          cc-pvtz                   on all atoms 




 Summary of "cc-pvqz" -> "" (spherical)
 ------------------------------------------------------------------------------
       Tag                 Description            Shells   Functions and Types
 ---------------- ------------------------------  ------  ---------------------
 *                          cc-pvqz                   on all atoms 




 Summary of "cc-pv5z" -> "" (spherical)
 ------------------------------------------------------------------------------
       Tag                 Description            Shells   Functions and Types
 ---------------- ------------------------------  ------  ---------------------
 *                          cc-pv5z                   on all atoms 




 Summary of "cc-pv6z" -> "" (spherical)
 ------------------------------------------------------------------------------
       Tag                 Description            Shells   Functions and Types
 ---------------- ------------------------------  ------  ---------------------
 *                          cc-pv6z                   on all atoms 


  pbe96 is a nonlocal functional; adding pw91lda local functional. 


                           NWChem Geometry Optimization
                           ----------------------------


  no constraints, skipping    0.0000000000000000     
 maximum gradient threshold         (gmax) =   0.000450
 rms gradient threshold             (grms) =   0.000300
 maximum cartesian step threshold   (xmax) =   0.001800
 rms cartesian step threshold       (xrms) =   0.001200
 fixed trust radius                (trust) =   0.300000
 maximum step size to saddle      (sadstp) =   0.100000
 energy precision                  (eprec) =   5.0D-06
 maximum number of steps          (nptopt) =   40
 initial hessian option           (inhess) =    0
 line search option               (linopt) =    1
 hessian update option            (modupd) =    1
 saddle point option              (modsad) =    0
 initial eigen-mode to follow     (moddir) =    0
 initial variable to follow       (vardir) =    0
 follow first negative mode     (firstneg) =    T
 apply conjugacy                    (opcg) =    F
 source of zmatrix                         =   autoz   


          -------------------
          Energy Minimization
          -------------------


 Names of Z-matrix variables 
    1         

 Variables with the same non-blank name are constrained to be equal


 Using diagonal initial Hessian 
 Scaling for Hessian diagonals: bonds = 1.00  angles = 0.25  torsions = 0.10

          --------
          Step   0
          --------


                         Geometry "geometry" -> "geometry"
                         ---------------------------------

 Output coordinates in angstroms (scale by  1.889725989 to convert to a.u.)

  No.       Tag          Charge          X              Y              Z
 ---- ---------------- ---------- -------------- -------------- --------------
    1 O                    8.0000     0.00000000     0.00000000     0.10792685
    2 H                    1.0000     0.00000000     0.00000000    -0.86341483

      Atomic Mass 
      ----------- 

      O                 15.994910
      H                  1.007825


 Effective nuclear repulsion energy (a.u.)       4.3583200974

            Nuclear Dipole moment (a.u.) 
            ----------------------------
        X                 Y               Z
 ---------------- ---------------- ----------------
     0.0000000000     0.0000000000     0.0000000000

      Symmetry information
      --------------------

 Group name             C4v       
 Group number             18
 Group order               8
 No. of unique centers     2

      Symmetry unique atoms

     1    2


                                 NWChem DFT Module
                                 -----------------


                      Basis "ao basis" -> "cc-pvdz" (spherical)
                      -----
  O (Oxygen)
  ----------
            Exponent  Coefficients 
       -------------- ---------------------------------------------------------
  1 S  1.17200000E+04  0.000710
  1 S  1.75900000E+03  0.005470
  1 S  4.00800000E+02  0.027837
  1 S  1.13700000E+02  0.104800
  1 S  3.70300000E+01  0.283062
  1 S  1.32700000E+01  0.448719
  1 S  5.02500000E+00  0.270952
  1 S  1.01300000E+00  0.015458

  2 S  1.17200000E+04 -0.000160
  2 S  1.75900000E+03 -0.001263
  2 S  4.00800000E+02 -0.006267
  2 S  1.13700000E+02 -0.025716
  2 S  3.70300000E+01 -0.070924
  2 S  1.32700000E+01 -0.165411
  2 S  5.02500000E+00 -0.116955
  2 S  1.01300000E+00  0.557368

  3 S  3.02300000E-01  1.000000

  4 P  1.77000000E+01  0.043018
  4 P  3.85400000E+00  0.228913
  4 P  1.04600000E+00  0.508728

  5 P  2.75300000E-01  1.000000

  6 D  1.18500000E+00  1.000000

  H (Hydrogen)
  ------------
            Exponent  Coefficients 
       -------------- ---------------------------------------------------------
  1 S  1.30100000E+01  0.019685
  1 S  1.96200000E+00  0.137977
  1 S  4.44600000E-01  0.478148

  2 S  1.22000000E-01  1.000000

  3 P  7.27000000E-01  1.000000



 Summary of "ao basis" -> "cc-pvdz" (spherical)
 ------------------------------------------------------------------------------
       Tag                 Description            Shells   Functions and Types
 ---------------- ------------------------------  ------  ---------------------
 O                          cc-pvdz                  6       14   3s2p1d
 H                          cc-pvdz                  3        5   2s1p




 Summary of "ao basis" -> "cc-pvdz" (spherical)
 ------------------------------------------------------------------------------
       Tag                 Description            Shells   Functions and Types
 ---------------- ------------------------------  ------  ---------------------
 O                          cc-pvdz                  6       14   3s2p1d
 H                          cc-pvdz                  3        5   2s1p


      Symmetry analysis of basis
      --------------------------

        a1          9
        a2          0
        b1          1
        b2          1
        e           8

  texas integral default override: limxmem =             50000000
  Caching 1-el integrals 

            General Information
            -------------------
          SCF calculation type: DFT
          Wavefunction type:  closed shell.
          No. of atoms     :     2
          No. of electrons :    10
           Alpha electrons :     5
            Beta electrons :     5
          Charge           :    -1
          Spin multiplicity:     1
          Use of symmetry is: on ; symmetry adaption is: on 
          Maximum number of iterations:  50
          This is a Direct SCF calculation.
          AO basis - number of functions:    19
                     number of shells:     9
          Convergence on energy requested:  1.00D-06
          Convergence on density requested:  1.00D-05
          Convergence on gradient requested:  5.00D-04

              XC Information
              --------------
          PerdewBurkeErnzerhof Exchange Functional  1.000          
            Perdew 1991 LDA Correlation Functional  1.000 local    
           PerdewBurkeErnz. Correlation Functional  1.000 non-local

             Grid Information
             ----------------
          Grid used for XC integration:  medium    
          Radial quadrature: Mura-Knowles        
          Angular quadrature: Lebedev. 
          Tag              B.-S. Rad. Rad. Pts. Rad. Cut. Ang. Pts.
          ---              ---------- --------- --------- ---------
          O                   0.60       49           5.0       434
          H                   0.35       45           5.0       434
          Grid pruning is: on 
          Number of quadrature shells:    94
          Spatial weights used:  Erf1

          Convergence Information
          -----------------------
          Convergence aids based upon iterative change in 
          total energy or number of iterations. 
          Levelshifting, if invoked, occurs when the 
          HOMO/LUMO gap drops below (HL_TOL):  1.00D-02
          DIIS, if invoked, will attempt to extrapolate 
          using up to (NFOCK): 10 stored Fock matrices.

                    Damping( 0%)  Levelshifting(0.5)       DIIS
                  --------------- ------------------- ---------------
          dE  on:    start            ASAP                start   
          dE off:    2 iters         50 iters            50 iters 


      Screening Tolerance Information
      -------------------------------
          Density screening/tol_rho:  1.00D-10
          AO Gaussian exp screening on grid/accAOfunc:  14
          CD Gaussian exp screening on grid/accCDfunc:  20
          XC Gaussian exp screening on grid/accXCfunc:  20
          Schwarz screening/accCoul:  1.00D-08


      Superposition of Atomic Density Guess
      -------------------------------------

 Sum of atomic energies:         -75.26295010

 Renormalizing density from       9.00 to     10

      Non-variational initial energy
      ------------------------------

 Total energy =     -79.852683
 1-e energy   =    -124.513228
 2-e energy   =      40.302225
 HOMO         =       0.245127
 LUMO         =       0.508119


      Symmetry analysis of molecular orbitals - initial
      -------------------------------------------------


 !! scf_movecs_sym_adapt:    2 vectors were symmetry contaminated

  Symmetry fudging

 !! scf_movecs_sym_adapt:    2 vectors were symmetry contaminated

  Numbering of irreducible representations: 

     1 a1          2 a2          3 b1          4 b2          5 e       

  Orbital symmetries:

     1 a1          2 a1          3 a1          4 e           5 e       
     6 a1          7 a1          8 a1          9 e          10 e       
    11 e          12 e          13 a1         14 a1         15 b2      

   Time after variat. SCF:      0.7
   Time prior to 1st pass:      0.7

 Grid_pts file          = ./oh-dat.gridpts.00
 Record size in doubles =  12289        No. of grid_pts per rec  =   3070
 Max. records in memory =      2        Max. recs in file   =    111032


           Memory utilization after 1st SCF pass: 
           Heap Space remaining (MW):       13.08            13080930
          Stack Space remaining (MW):       65.54            65535780

   convergence    iter        energy       DeltaE   RMS-Dens  Diis-err    time
 ---------------- ----- ----------------- --------- --------- ---------  ------
 d= 0,ls=0.0,diis     1    -75.5082591973 -7.99D+01  6.49D-02  1.35D+00     0.7
 d= 0,ls=0.0,diis     2    -75.3619294946  1.46D-01  4.46D-02  3.00D+00     0.8
 d= 0,ls=0.0,diis     3    -75.6300376011 -2.68D-01  6.96D-03  2.72D-02     0.8
 d= 0,ls=0.0,diis     4    -75.6332339975 -3.20D-03  4.07D-04  2.24D-04     0.9
 d= 0,ls=0.0,diis     5    -75.6332534198 -1.94D-05  6.45D-05  1.52D-06     0.9
 d= 0,ls=0.0,diis     6    -75.6332536334 -2.14D-07  1.26D-05  1.21D-07     0.9
 d= 0,ls=0.0,diis     7    -75.6332536459 -1.25D-08  5.72D-07  8.28D-11     1.0


         Total DFT energy =      -75.633253645934
      One electron energy =     -117.219832495674
           Coulomb energy =       46.425109322609
    Exchange-Corr. energy =       -9.196850570269
 Nuclear repulsion energy =        4.358320097400

 Numeric. integr. density =       10.000000390813

     Total iterative time =      0.3s



                  Occupations of the irreducible representations
                  ----------------------------------------------

                     irrep           alpha         beta
                     --------     --------     --------
                     a1                3.0          3.0
                     a2                0.0          0.0
                     b1                0.0          0.0
                     b2                0.0          0.0
                     e                 2.0          2.0


                       DFT Final Molecular Orbital Analysis
                       ------------------------------------

 Vector    1  Occ=2.000000D+00  E=-1.825975D+01  Symmetry=a1
              MO Center=  1.1D-22,  2.4D-22,  1.1D-01, r^2= 1.5D-02
   Bfn.  Coefficient  Atom+Function         Bfn.  Coefficient  Atom+Function  
  ----- ------------  ---------------      ----- ------------  ---------------
     1      1.003256  1 O  s          

 Vector    2  Occ=2.000000D+00  E=-3.832317D-01  Symmetry=a1
              MO Center= -9.1D-17, -2.9D-16, -1.5D-01, r^2= 5.2D-01
   Bfn.  Coefficient  Atom+Function         Bfn.  Coefficient  Atom+Function  
  ----- ------------  ---------------      ----- ------------  ---------------
     3      0.426950  1 O  s                  2      0.420009  1 O  s          
    15      0.251723  2 H  s                  6     -0.122489  1 O  pz         
    16      0.078622  2 H  s                 19      0.039377  2 H  pz         

 Vector    3  Occ=2.000000D+00  E= 7.749960D-02  Symmetry=a1
              MO Center=  1.2D-16,  3.0D-16, -1.7D-02, r^2= 8.8D-01
   Bfn.  Coefficient  Atom+Function         Bfn.  Coefficient  Atom+Function  
  ----- ------------  ---------------      ----- ------------  ---------------
     3      0.474181  1 O  s                  6      0.453716  1 O  pz         
    15     -0.371081  2 H  s                  9      0.281729  1 O  pz         
    16     -0.217615  2 H  s                  2      0.156314  1 O  s          

 Vector    4  Occ=2.000000D+00  E= 2.322808D-01  Symmetry=e
              MO Center=  4.5D-17,  3.6D-17,  8.6D-02, r^2= 6.5D-01
   Bfn.  Coefficient  Atom+Function         Bfn.  Coefficient  Atom+Function  
  ----- ------------  ---------------      ----- ------------  ---------------
     5      0.456364  1 O  py                 8      0.422363  1 O  py         
     4      0.376560  1 O  px                 7      0.348505  1 O  px         
    18      0.028106  2 H  py         

 Vector    5  Occ=2.000000D+00  E= 2.322808D-01  Symmetry=e
              MO Center=  2.9D-16, -2.8D-16,  8.6D-02, r^2= 6.5D-01
   Bfn.  Coefficient  Atom+Function         Bfn.  Coefficient  Atom+Function  
  ----- ------------  ---------------      ----- ------------  ---------------
     4      0.456364  1 O  px                 7      0.422363  1 O  px         
     5     -0.376560  1 O  py                 8     -0.348505  1 O  py         
    17      0.028106  2 H  px         

 Vector    6  Occ=0.000000D+00  E= 3.608301D-01  Symmetry=a1
              MO Center= -5.5D-16,  2.5D-16, -9.8D-01, r^2= 2.3D+00
   Bfn.  Coefficient  Atom+Function         Bfn.  Coefficient  Atom+Function  
  ----- ------------  ---------------      ----- ------------  ---------------
    16      1.404149  2 H  s                  3     -0.794532  1 O  s          
     9      0.483308  1 O  pz                 6      0.299580  1 O  pz         
     2     -0.061513  1 O  s                  1      0.041678  1 O  s          
    19      0.030461  2 H  pz         

 Vector    7  Occ=0.000000D+00  E= 9.139923D-01  Symmetry=a1
              MO Center= -8.8D-17,  1.8D-17, -7.6D-01, r^2= 1.1D+00
   Bfn.  Coefficient  Atom+Function         Bfn.  Coefficient  Atom+Function  
  ----- ------------  ---------------      ----- ------------  ---------------
    15      1.243681  2 H  s                 16     -0.876842  2 H  s          
     6      0.424147  1 O  pz                19     -0.294413  2 H  pz         
     9      0.192312  1 O  pz                 3      0.152023  1 O  s          
     2     -0.138280  1 O  s                 12      0.098567  1 O  d  0       
     1     -0.031051  1 O  s          

 Vector    8  Occ=0.000000D+00  E= 1.267841D+00  Symmetry=a1
              MO Center=  5.3D-16, -1.2D-15,  5.3D-01, r^2= 1.1D+00
   Bfn.  Coefficient  Atom+Function         Bfn.  Coefficient  Atom+Function  
  ----- ------------  ---------------      ----- ------------  ---------------
     9      1.512508  1 O  pz                15      0.830546  2 H  s          
     6     -0.730554  1 O  pz                 3     -0.462060  1 O  s          
    19      0.311430  2 H  pz                16      0.256164  2 H  s          
     2     -0.247918  1 O  s                  1     -0.056264  1 O  s          

 Vector    9  Occ=0.000000D+00  E= 1.283972D+00  Symmetry=e
              MO Center= -5.6D-16,  9.4D-16,  8.7D-02, r^2= 1.0D+00
   Bfn.  Coefficient  Atom+Function         Bfn.  Coefficient  Atom+Function  
  ----- ------------  ---------------      ----- ------------  ---------------
     5      0.854292  1 O  py                 8     -0.852167  1 O  py         
     4     -0.504892  1 O  px                 7      0.503636  1 O  px         
    18     -0.040156  2 H  py         

 Vector   10  Occ=0.000000D+00  E= 1.283972D+00  Symmetry=e
              MO Center=  1.1D-16,  6.7D-17,  8.7D-02, r^2= 1.0D+00
   Bfn.  Coefficient  Atom+Function         Bfn.  Coefficient  Atom+Function  
  ----- ------------  ---------------      ----- ------------  ---------------
     4      0.854292  1 O  px                 7     -0.852167  1 O  px         
     5      0.504892  1 O  py                 8     -0.503636  1 O  py         
    17     -0.040156  2 H  px         

 Vector   11  Occ=0.000000D+00  E= 1.646848D+00  Symmetry=e
              MO Center= -2.6D-18,  2.9D-18, -6.8D-01, r^2= 7.7D-01
   Bfn.  Coefficient  Atom+Function         Bfn.  Coefficient  Atom+Function  
  ----- ------------  ---------------      ----- ------------  ---------------
    17      1.020339  2 H  px                 7     -0.459526  1 O  px         
    13      0.136982  1 O  d  1              18     -0.065610  2 H  py         
     8      0.029549  1 O  py         

 Vector   12  Occ=0.000000D+00  E= 1.646848D+00  Symmetry=e
              MO Center= -5.8D-18, -1.3D-17, -6.8D-01, r^2= 7.7D-01
   Bfn.  Coefficient  Atom+Function         Bfn.  Coefficient  Atom+Function  
  ----- ------------  ---------------      ----- ------------  ---------------
    18      1.020339  2 H  py                 8     -0.459526  1 O  py         
    11     -0.136982  1 O  d -1              17      0.065610  2 H  px         
     7     -0.029549  1 O  px         

 Vector   13  Occ=0.000000D+00  E= 1.777773D+00  Symmetry=a1
              MO Center=  5.8D-17, -1.2D-17, -1.5D-01, r^2= 1.2D+00
   Bfn.  Coefficient  Atom+Function         Bfn.  Coefficient  Atom+Function  
  ----- ------------  ---------------      ----- ------------  ---------------
     3      2.440690  1 O  s                  2     -1.665108  1 O  s          
    16     -0.732987  2 H  s                  9     -0.726054  1 O  pz         
     1     -0.711840  1 O  s                 15     -0.586806  2 H  s          
    19     -0.321274  2 H  pz                12     -0.056239  1 O  d  0       

 Vector   14  Occ=0.000000D+00  E= 2.421475D+00  Symmetry=a1
              MO Center=  6.7D-18,  6.1D-18, -7.1D-01, r^2= 6.4D-01
   Bfn.  Coefficient  Atom+Function         Bfn.  Coefficient  Atom+Function  
  ----- ------------  ---------------      ----- ------------  ---------------
    19      1.303918  2 H  pz                 6      0.735633  1 O  pz         
     3     -0.592743  1 O  s                 15      0.534676  2 H  s          
     2     -0.462581  1 O  s                 16      0.322796  2 H  s          
     1     -0.169863  1 O  s                  9      0.167898  1 O  pz         
    12      0.142760  1 O  d  0       

 Vector   15  Occ=0.000000D+00  E= 3.013150D+00  Symmetry=b2
              MO Center=  6.6D-17,  5.9D-17,  1.1D-01, r^2= 4.1D-01
   Bfn.  Coefficient  Atom+Function         Bfn.  Coefficient  Atom+Function  
  ----- ------------  ---------------      ----- ------------  ---------------
    10      1.000000  1 O  d -2       

 Vector   16  Occ=0.000000D+00  E= 3.013151D+00  Symmetry=b1
              MO Center=  8.5D-18,  5.4D-17,  1.1D-01, r^2= 4.1D-01
   Bfn.  Coefficient  Atom+Function         Bfn.  Coefficient  Atom+Function  
  ----- ------------  ---------------      ----- ------------  ---------------
    14      1.000000  1 O  d  2       

 Vector   17  Occ=0.000000D+00  E= 3.299566D+00  Symmetry=e
              MO Center=  1.2D-17, -1.3D-17,  8.0D-03, r^2= 5.7D-01
   Bfn.  Coefficient  Atom+Function         Bfn.  Coefficient  Atom+Function  
  ----- ------------  ---------------      ----- ------------  ---------------
    13      0.776342  1 O  d  1              11      0.710369  1 O  d -1       
    17     -0.385193  2 H  px                18      0.352459  2 H  py         
     7      0.151789  1 O  px                 8     -0.138890  1 O  py         

 Vector   18  Occ=0.000000D+00  E= 3.299566D+00  Symmetry=e
              MO Center=  3.9D-17,  4.4D-17,  8.0D-03, r^2= 5.7D-01
   Bfn.  Coefficient  Atom+Function         Bfn.  Coefficient  Atom+Function  
  ----- ------------  ---------------      ----- ------------  ---------------
    11      0.776342  1 O  d -1              13     -0.710369  1 O  d  1       
    18      0.385193  2 H  py                17      0.352459  2 H  px         
     8     -0.151789  1 O  py                 7     -0.138890  1 O  px         

 Vector   19  Occ=0.000000D+00  E= 3.972387D+00  Symmetry=a1
              MO Center=  2.8D-18,  2.0D-17,  1.3D-02, r^2= 7.5D-01
   Bfn.  Coefficient  Atom+Function         Bfn.  Coefficient  Atom+Function  
  ----- ------------  ---------------      ----- ------------  ---------------
    15     -1.549031  2 H  s                  3      1.519702  1 O  s          
    12      1.257156  1 O  d  0              19     -1.072568  2 H  pz         
     9     -1.010920  1 O  pz                 6     -0.389194  1 O  pz         
    16     -0.309075  2 H  s                  2     -0.164770  1 O  s          
     1     -0.116219  1 O  s          


 center of mass
 --------------
 x =   0.00000000 y =   0.00000000 z =   0.09515010

 moments of inertia (a.u.)
 ------------------
           3.194404199078           0.000000000000           0.000000000000
           0.000000000000           3.194404199078           0.000000000000
           0.000000000000           0.000000000000           0.000000000000

     Multipole analysis of the density
     ---------------------------------

     L   x y z        total         alpha         beta         nuclear
     -   - - -        -----         -----         ----         -------
     0   0 0 0     -1.000000     -5.000000     -5.000000      9.000000

     1   1 0 0     -0.000000     -0.000000     -0.000000      0.000000
     1   0 1 0     -0.000000     -0.000000     -0.000000      0.000000
     1   0 0 1     -0.428662     -0.214331     -0.214331      0.000000

     2   2 0 0     -5.806292     -2.903146     -2.903146      0.000000
     2   1 1 0     -0.000000     -0.000000     -0.000000      0.000000
     2   1 0 1     -0.000000     -0.000000     -0.000000      0.000000
     2   0 2 0     -5.806292     -2.903146     -2.903146      0.000000
     2   0 1 1     -0.000000     -0.000000     -0.000000      0.000000
     2   0 0 2     -5.052280     -4.023614     -4.023614      2.994947


            General Information
            -------------------
          SCF calculation type: DFT
          Wavefunction type:  closed shell.
          No. of atoms     :     2
          No. of electrons :    10
           Alpha electrons :     5
            Beta electrons :     5
          Charge           :    -1
          Spin multiplicity:     1
          Use of symmetry is: on ; symmetry adaption is: on 
          Maximum number of iterations:  50
          This is a Direct SCF calculation.
          AO basis - number of functions:    19
                     number of shells:     9
          Convergence on energy requested:  1.00D-06
          Convergence on density requested:  1.00D-05
          Convergence on gradient requested:  5.00D-04

              XC Information
              --------------
          PerdewBurkeErnzerhof Exchange Functional  1.000          
            Perdew 1991 LDA Correlation Functional  1.000 local    
           PerdewBurkeErnz. Correlation Functional  1.000 non-local

             Grid Information
             ----------------
          Grid used for XC integration:  medium    
          Radial quadrature: Mura-Knowles        
          Angular quadrature: Lebedev. 
          Tag              B.-S. Rad. Rad. Pts. Rad. Cut. Ang. Pts.
          ---              ---------- --------- --------- ---------
          O                   0.60       49           5.0       434
          H                   0.35       45           5.0       434
          Grid pruning is: on 
          Number of quadrature shells:    94
          Spatial weights used:  Erf1

          Convergence Information
          -----------------------
          Convergence aids based upon iterative change in 
          total energy or number of iterations. 
          Levelshifting, if invoked, occurs when the 
          HOMO/LUMO gap drops below (HL_TOL):  1.00D-02
          DIIS, if invoked, will attempt to extrapolate 
          using up to (NFOCK): 10 stored Fock matrices.

                    Damping( 0%)  Levelshifting(0.5)       DIIS
                  --------------- ------------------- ---------------
          dE  on:    start            ASAP                start   
          dE off:    2 iters         50 iters            50 iters 


      Screening Tolerance Information
      -------------------------------
          Density screening/tol_rho:  1.00D-10
          AO Gaussian exp screening on grid/accAOfunc:  14
          CD Gaussian exp screening on grid/accCDfunc:  20
          XC Gaussian exp screening on grid/accXCfunc:  20
          Schwarz screening/accCoul:  1.00D-08

  texas integral default override: limxmem =             50000000
  texas integral default override: limxmem =             50000000


                            NWChem DFT Gradient Module
                            --------------------------



  charge          =  -1.00
  wavefunction    = closed shell

  Using symmetry
  texas integral default override: limxmem =             50000000
  texas integral default override: limxmem =             50000000


                         DFT ENERGY GRADIENTS

    atom               coordinates                        gradient
                 x          y          z           x          y          z
   1 O       0.000000   0.000000   0.203952    0.000000   0.000000  -0.024765
   2 H       0.000000   0.000000  -1.631617    0.000000   0.000000   0.024765

                 ----------------------------------------
                 |  Time  |  1-e(secs)   |  2-e(secs)   |
                 ----------------------------------------
                 |  CPU   |       0.00   |       0.02   |
                 ----------------------------------------
                 |  WALL  |       0.00   |       0.02   |
                 ----------------------------------------
  no constraints, skipping    0.0000000000000000     

@ Step       Energy      Delta E   Gmax     Grms     Xrms     Xmax   Walltime
@ ---- ---------------- -------- -------- -------- -------- -------- --------
@    0     -75.63325365  0.0D+00  0.02476  0.02476  0.00000  0.00000      1.1
                                                                    



                                Z-matrix (autoz)
                                -------- 

 Units are Angstrom for bonds and degrees for angles

      Type          Name      I     J     K     L     M      Value     Gradient
      ----------- --------  ----- ----- ----- ----- ----- ---------- ----------
    1 Stretch                  1     2                       0.97134   -0.02476

  no constraints, skipping    0.0000000000000000     
  no constraints, skipping    0.0000000000000000     
  no constraints, skipping    0.0000000000000000     

                                 NWChem DFT Module
                                 -----------------




 Summary of "ao basis" -> "cc-pvdz" (spherical)
 ------------------------------------------------------------------------------
       Tag                 Description            Shells   Functions and Types
 ---------------- ------------------------------  ------  ---------------------
 O                          cc-pvdz                  6       14   3s2p1d
 H                          cc-pvdz                  3        5   2s1p


      Symmetry analysis of basis
      --------------------------

        a1          9
        a2          0
        b1          1
        b2          1
        e           8

  texas integral default override: limxmem =             50000000
  Caching 1-el integrals 

            General Information
            -------------------
          SCF calculation type: DFT
          Wavefunction type:  closed shell.
          No. of atoms     :     2
          No. of electrons :    10
           Alpha electrons :     5
            Beta electrons :     5
          Charge           :    -1
          Spin multiplicity:     1
          Use of symmetry is: on ; symmetry adaption is: on 
          Maximum number of iterations:  50
          This is a Direct SCF calculation.
          AO basis - number of functions:    19
                     number of shells:     9
          Convergence on energy requested:  1.00D-06
          Convergence on density requested:  1.00D-05
          Convergence on gradient requested:  5.00D-04

              XC Information
              --------------
          PerdewBurkeErnzerhof Exchange Functional  1.000          
            Perdew 1991 LDA Correlation Functional  1.000 local    
           PerdewBurkeErnz. Correlation Functional  1.000 non-local

             Grid Information
             ----------------
          Grid used for XC integration:  medium    
          Radial quadrature: Mura-Knowles        
          Angular quadrature: Lebedev. 
          Tag              B.-S. Rad. Rad. Pts. Rad. Cut. Ang. Pts.
          ---              ---------- --------- --------- ---------
          O                   0.60       49           5.0       434
          H                   0.35       45           5.0       434
          Grid pruning is: on 
          Number of quadrature shells:    94
          Spatial weights used:  Erf1

          Convergence Information
          -----------------------
          Convergence aids based upon iterative change in 
          total energy or number of iterations. 
          Levelshifting, if invoked, occurs when the 
          HOMO/LUMO gap drops below (HL_TOL):  1.00D-02
          DIIS, if invoked, will attempt to extrapolate 
          using up to (NFOCK): 10 stored Fock matrices.

                    Damping( 0%)  Levelshifting(0.5)       DIIS
                  --------------- ------------------- ---------------
          dE  on:    start            ASAP                start   
          dE off:    2 iters         50 iters            50 iters 


      Screening Tolerance Information
      -------------------------------
          Density screening/tol_rho:  1.00D-10
          AO Gaussian exp screening on grid/accAOfunc:  14
          CD Gaussian exp screening on grid/accCDfunc:  20
          XC Gaussian exp screening on grid/accXCfunc:  20
          Schwarz screening/accCoul:  1.00D-08


 Loading old vectors from job with title :




      Symmetry analysis of molecular orbitals - initial
      -------------------------------------------------

  Numbering of irreducible representations: 

     1 a1          2 a2          3 b1          4 b2          5 e       

  Orbital symmetries:

     1 a1          2 a1          3 a1          4 e           5 e       
     6 a1          7 a1          8 a1          9 e          10 e       
    11 e          12 e          13 a1         14 a1         15 b2      

   Time after variat. SCF:      1.2
   Time prior to 1st pass:      1.2

 Grid_pts file          = ./oh-dat.gridpts.00
 Record size in doubles =  12289        No. of grid_pts per rec  =   3070
 Max. records in memory =      2        Max. recs in file   =    111032


           Memory utilization after 1st SCF pass: 
           Heap Space remaining (MW):       13.08            13080930
          Stack Space remaining (MW):       65.54            65535780

   convergence    iter        energy       DeltaE   RMS-Dens  Diis-err    time
 ---------------- ----- ----------------- --------- --------- ---------  ------
 d= 0,ls=0.0,diis     1    -75.6334481346 -7.98D+01  4.56D-03  2.48D-03     1.2
 d= 0,ls=0.0,diis     2    -75.6337883764 -3.40D-04  1.99D-03  1.29D-03     1.3
 d= 0,ls=0.0,diis     3    -75.6338466826 -5.83D-05  7.53D-04  8.61D-04     1.3
 d= 0,ls=0.0,diis     4    -75.6339259654 -7.93D-05  3.24D-05  1.25D-06     1.4
 d= 0,ls=0.0,diis     5    -75.6339260709 -1.05D-07  1.76D-05  1.32D-07     1.4
 d= 0,ls=0.0,diis     6    -75.6339260864 -1.55D-08  1.29D-06  7.09D-10     1.4


         Total DFT energy =      -75.633926086400
      One electron energy =     -116.891213757839
           Coulomb energy =       46.237415544822
    Exchange-Corr. energy =       -9.177674533156
 Nuclear repulsion energy =        4.197546659773

 Numeric. integr. density =        9.999999720571

     Total iterative time =      0.3s



                  Occupations of the irreducible representations
                  ----------------------------------------------

                     irrep           alpha         beta
                     --------     --------     --------
                     a1                3.0          3.0
                     a2                0.0          0.0
                     b1                0.0          0.0
                     b2                0.0          0.0
                     e                 2.0          2.0


                       DFT Final Molecular Orbital Analysis
                       ------------------------------------

 Vector    1  Occ=2.000000D+00  E=-1.826757D+01  Symmetry=a1
              MO Center=  8.1D-23,  1.7D-22,  1.3D-01, r^2= 1.5D-02
   Bfn.  Coefficient  Atom+Function         Bfn.  Coefficient  Atom+Function  
  ----- ------------  ---------------      ----- ------------  ---------------
     1      1.003203  1 O  s          

 Vector    2  Occ=2.000000D+00  E=-3.776876D-01  Symmetry=a1
              MO Center= -1.5D-16,  8.4D-17, -1.2D-01, r^2= 5.3D-01
   Bfn.  Coefficient  Atom+Function         Bfn.  Coefficient  Atom+Function  
  ----- ------------  ---------------      ----- ------------  ---------------
     3      0.445400  1 O  s                  2      0.424048  1 O  s          
    15      0.233503  2 H  s                  6     -0.114557  1 O  pz         
    16      0.078562  2 H  s                 19      0.037311  2 H  pz         

 Vector    3  Occ=2.000000D+00  E= 7.410770D-02  Symmetry=a1
              MO Center= -1.6D-16,  1.1D-16, -4.5D-02, r^2= 9.2D-01
   Bfn.  Coefficient  Atom+Function         Bfn.  Coefficient  Atom+Function  
  ----- ------------  ---------------      ----- ------------  ---------------
     3      0.464127  1 O  s                  6      0.447545  1 O  pz         
    15     -0.373128  2 H  s                  9      0.277664  1 O  pz         
    16     -0.239638  2 H  s                  2      0.151515  1 O  s          

 Vector    4  Occ=2.000000D+00  E= 2.297716D-01  Symmetry=e
              MO Center= -4.0D-17, -2.4D-17,  1.1D-01, r^2= 6.5D-01
   Bfn.  Coefficient  Atom+Function         Bfn.  Coefficient  Atom+Function  
  ----- ------------  ---------------      ----- ------------  ---------------
     5      0.481884  1 O  py                 8      0.444420  1 O  py         
     4     -0.346209  1 O  px                 7     -0.319293  1 O  px         
    18      0.028872  2 H  py         

 Vector    5  Occ=2.000000D+00  E= 2.297716D-01  Symmetry=e
              MO Center=  9.2D-17,  1.9D-17,  1.1D-01, r^2= 6.5D-01
   Bfn.  Coefficient  Atom+Function         Bfn.  Coefficient  Atom+Function  
  ----- ------------  ---------------      ----- ------------  ---------------
     4      0.481884  1 O  px                 7      0.444420  1 O  px         
     5      0.346209  1 O  py                 8      0.319293  1 O  py         
    17      0.028872  2 H  px         

 Vector    6  Occ=0.000000D+00  E= 3.550287D-01  Symmetry=a1
              MO Center=  2.6D-16, -3.6D-16, -9.5D-01, r^2= 2.3D+00
   Bfn.  Coefficient  Atom+Function         Bfn.  Coefficient  Atom+Function  
  ----- ------------  ---------------      ----- ------------  ---------------
    16      1.359770  2 H  s                  3     -0.750942  1 O  s          
     9      0.497128  1 O  pz                 6      0.318544  1 O  pz         
     2     -0.061906  1 O  s                  1      0.039690  1 O  s          

 Vector    7  Occ=0.000000D+00  E= 8.809957D-01  Symmetry=a1
              MO Center= -4.9D-17,  4.7D-17, -7.8D-01, r^2= 1.2D+00
   Bfn.  Coefficient  Atom+Function         Bfn.  Coefficient  Atom+Function  
  ----- ------------  ---------------      ----- ------------  ---------------
    15      1.251519  2 H  s                 16     -0.922637  2 H  s          
     6      0.419219  1 O  pz                19     -0.263243  2 H  pz         
     3      0.180158  1 O  s                  9      0.168810  1 O  pz         
     2     -0.139354  1 O  s                 12      0.092154  1 O  d  0       
     1     -0.035931  1 O  s          

 Vector    8  Occ=0.000000D+00  E= 1.271713D+00  Symmetry=a1
              MO Center=  9.5D-17, -3.0D-16,  5.6D-01, r^2= 1.1D+00
   Bfn.  Coefficient  Atom+Function         Bfn.  Coefficient  Atom+Function  
  ----- ------------  ---------------      ----- ------------  ---------------
     9      1.483669  1 O  pz                15      0.782062  2 H  s          
     6     -0.747348  1 O  pz                 3     -0.380538  1 O  s          
    19      0.315918  2 H  pz                 2     -0.264222  1 O  s          
    16      0.231984  2 H  s                  1     -0.062869  1 O  s          

 Vector    9  Occ=0.000000D+00  E= 1.279275D+00  Symmetry=e
              MO Center= -9.3D-17,  2.9D-16,  8.7D-02, r^2= 1.0D+00
   Bfn.  Coefficient  Atom+Function         Bfn.  Coefficient  Atom+Function  
  ----- ------------  ---------------      ----- ------------  ---------------
     5      0.943055  1 O  py                 8     -0.929740  1 O  py         
     4     -0.297724  1 O  px                 7      0.293521  1 O  px         
    18     -0.078399  2 H  py         

 Vector   10  Occ=0.000000D+00  E= 1.279275D+00  Symmetry=e
              MO Center=  6.8D-18,  2.8D-18,  8.7D-02, r^2= 1.0D+00
   Bfn.  Coefficient  Atom+Function         Bfn.  Coefficient  Atom+Function  
  ----- ------------  ---------------      ----- ------------  ---------------
     4      0.943055  1 O  px                 7     -0.929740  1 O  px         
     5      0.297724  1 O  py                 8     -0.293521  1 O  py         
    17     -0.078399  2 H  px         

 Vector   11  Occ=0.000000D+00  E= 1.637636D+00  Symmetry=e
              MO Center=  8.9D-20,  6.1D-19, -6.8D-01, r^2= 8.0D-01
   Bfn.  Coefficient  Atom+Function         Bfn.  Coefficient  Atom+Function  
  ----- ------------  ---------------      ----- ------------  ---------------
    18      1.003758  2 H  py                 8     -0.473891  1 O  py         
    17     -0.143003  2 H  px                11     -0.139959  1 O  d -1       
     5      0.073218  1 O  py                 7      0.067514  1 O  px         

 Vector   12  Occ=0.000000D+00  E= 1.637636D+00  Symmetry=e
              MO Center= -3.9D-18, -1.2D-18, -6.8D-01, r^2= 8.0D-01
   Bfn.  Coefficient  Atom+Function         Bfn.  Coefficient  Atom+Function  
  ----- ------------  ---------------      ----- ------------  ---------------
    17      1.003758  2 H  px                 7     -0.473891  1 O  px         
    18      0.143003  2 H  py                13      0.139959  1 O  d  1       
     4      0.073218  1 O  px                 8     -0.067514  1 O  py         

 Vector   13  Occ=0.000000D+00  E= 1.773067D+00  Symmetry=a1
              MO Center= -7.8D-17, -1.2D-17, -1.4D-01, r^2= 1.2D+00
   Bfn.  Coefficient  Atom+Function         Bfn.  Coefficient  Atom+Function  
  ----- ------------  ---------------      ----- ------------  ---------------
     3      2.370183  1 O  s                  2     -1.675876  1 O  s          
     9     -0.725286  1 O  pz                 1     -0.716077  1 O  s          
    16     -0.698189  2 H  s                 15     -0.541984  2 H  s          
    19     -0.297019  2 H  pz                12     -0.063516  1 O  d  0       
     6      0.032687  1 O  pz         

 Vector   14  Occ=0.000000D+00  E= 2.339272D+00  Symmetry=a1
              MO Center= -6.5D-18,  4.0D-18, -7.3D-01, r^2= 6.6D-01
   Bfn.  Coefficient  Atom+Function         Bfn.  Coefficient  Atom+Function  
  ----- ------------  ---------------      ----- ------------  ---------------
    19      1.276353  2 H  pz                 6      0.689619  1 O  pz         
     3     -0.628735  1 O  s                 15      0.463389  2 H  s          
     2     -0.352821  1 O  s                 16      0.346698  2 H  s          
     9      0.185568  1 O  pz                12      0.134256  1 O  d  0       
     1     -0.114428  1 O  s          

 Vector   15  Occ=0.000000D+00  E= 3.010244D+00  Symmetry=b2
              MO Center=  6.3D-17,  4.8D-17,  1.3D-01, r^2= 4.1D-01
   Bfn.  Coefficient  Atom+Function         Bfn.  Coefficient  Atom+Function  
  ----- ------------  ---------------      ----- ------------  ---------------
    10      1.000000  1 O  d -2       

 Vector   16  Occ=0.000000D+00  E= 3.010244D+00  Symmetry=b1
              MO Center=  9.8D-18,  4.1D-17,  1.3D-01, r^2= 4.1D-01
   Bfn.  Coefficient  Atom+Function         Bfn.  Coefficient  Atom+Function  
  ----- ------------  ---------------      ----- ------------  ---------------
    14      1.000000  1 O  d  2       

 Vector   17  Occ=0.000000D+00  E= 3.261680D+00  Symmetry=e
              MO Center=  5.0D-17, -2.5D-18,  2.8D-02, r^2= 5.7D-01
   Bfn.  Coefficient  Atom+Function         Bfn.  Coefficient  Atom+Function  
  ----- ------------  ---------------      ----- ------------  ---------------
    13      1.040761  1 O  d  1              17     -0.486985  2 H  px         
     7      0.188941  1 O  px                 4     -0.025389  1 O  px         

 Vector   18  Occ=0.000000D+00  E= 3.261680D+00  Symmetry=e
              MO Center= -2.3D-19,  4.6D-17,  2.8D-02, r^2= 5.7D-01
   Bfn.  Coefficient  Atom+Function         Bfn.  Coefficient  Atom+Function  
  ----- ------------  ---------------      ----- ------------  ---------------
    11      1.040761  1 O  d -1              18      0.486985  2 H  py         
     8     -0.188941  1 O  py                 5      0.025389  1 O  py         

 Vector   19  Occ=0.000000D+00  E= 3.929457D+00  Symmetry=a1
              MO Center=  7.5D-18,  1.2D-17,  1.7D-02, r^2= 7.6D-01
   Bfn.  Coefficient  Atom+Function         Bfn.  Coefficient  Atom+Function  
  ----- ------------  ---------------      ----- ------------  ---------------
     3      1.430820  1 O  s                 15     -1.384123  2 H  s          
    12      1.239935  1 O  d  0              19     -1.035434  2 H  pz         
     9     -0.964030  1 O  pz                 6     -0.322772  1 O  pz         
    16     -0.304201  2 H  s                  2     -0.230348  1 O  s          
     1     -0.147575  1 O  s          


 center of mass
 --------------
 x =   0.00000000 y =   0.00000000 z =   0.12613556

 moments of inertia (a.u.)
 ------------------
           3.443793095620           0.000000000000           0.000000000000
           0.000000000000           3.443793095620           0.000000000000
           0.000000000000           0.000000000000           0.000000000000

     Multipole analysis of the density
     ---------------------------------

     L   x y z        total         alpha         beta         nuclear
     -   - - -        -----         -----         ----         -------
     0   0 0 0     -1.000000     -5.000000     -5.000000      9.000000

     1   1 0 0     -0.000000     -0.000000     -0.000000      0.000000
     1   0 1 0     -0.000000     -0.000000     -0.000000      0.000000
     1   0 0 1     -0.415512     -0.330791     -0.330791      0.246069

     2   2 0 0     -5.851284     -2.925642     -2.925642      0.000000
     2   1 1 0     -0.000000     -0.000000     -0.000000      0.000000
     2   1 0 1     -0.000000     -0.000000     -0.000000      0.000000
     2   0 2 0     -5.851284     -2.925642     -2.925642      0.000000
     2   0 1 1     -0.000000     -0.000000     -0.000000      0.000000
     2   0 0 2     -5.144245     -4.189868     -4.189868      3.235492

 Line search: 
     step= 1.00 grad=-1.7D-03 hess= 1.1D-03 energy=    -75.633926 mode=downhill
 new step= 0.81                   predicted energy=    -75.633963
  no constraints, skipping    0.0000000000000000     
  no constraints, skipping    0.0000000000000000     
  no constraints, skipping    0.0000000000000000     

          --------
          Step   1
          --------


                         Geometry "geometry" -> "geometry"
                         ---------------------------------

 Output coordinates in angstroms (scale by  1.889725989 to convert to a.u.)

  No.       Tag          Charge          X              Y              Z
 ---- ---------------- ---------- -------------- -------------- --------------
    1 O                    8.0000     0.00000000     0.00000000     0.12308036
    2 H                    1.0000     0.00000000     0.00000000    -0.87856834

      Atomic Mass 
      ----------- 

      O                 15.994910
      H                  1.007825


 Effective nuclear repulsion energy (a.u.)       4.2264498549

            Nuclear Dipole moment (a.u.) 
            ----------------------------
        X                 Y               Z
 ---------------- ---------------- ----------------
     0.0000000000     0.0000000000     0.2004518145

      Symmetry information
      --------------------

 Group name             C4v       
 Group number             18
 Group order               8
 No. of unique centers     2

      Symmetry unique atoms

     1    2


                                 NWChem DFT Module
                                 -----------------




 Summary of "ao basis" -> "cc-pvdz" (spherical)
 ------------------------------------------------------------------------------
       Tag                 Description            Shells   Functions and Types
 ---------------- ------------------------------  ------  ---------------------
 O                          cc-pvdz                  6       14   3s2p1d
 H                          cc-pvdz                  3        5   2s1p


      Symmetry analysis of basis
      --------------------------

        a1          9
        a2          0
        b1          1
        b2          1
        e           8

  texas integral default override: limxmem =             50000000
  Caching 1-el integrals 

            General Information
            -------------------
          SCF calculation type: DFT
          Wavefunction type:  closed shell.
          No. of atoms     :     2
          No. of electrons :    10
           Alpha electrons :     5
            Beta electrons :     5
          Charge           :    -1
          Spin multiplicity:     1
          Use of symmetry is: on ; symmetry adaption is: on 
          Maximum number of iterations:  50
          This is a Direct SCF calculation.
          AO basis - number of functions:    19
                     number of shells:     9
          Convergence on energy requested:  1.00D-06
          Convergence on density requested:  1.00D-05
          Convergence on gradient requested:  5.00D-04

              XC Information
              --------------
          PerdewBurkeErnzerhof Exchange Functional  1.000          
            Perdew 1991 LDA Correlation Functional  1.000 local    
           PerdewBurkeErnz. Correlation Functional  1.000 non-local

             Grid Information
             ----------------
          Grid used for XC integration:  medium    
          Radial quadrature: Mura-Knowles        
          Angular quadrature: Lebedev. 
          Tag              B.-S. Rad. Rad. Pts. Rad. Cut. Ang. Pts.
          ---              ---------- --------- --------- ---------
          O                   0.60       49           5.0       434
          H                   0.35       45           5.0       434
          Grid pruning is: on 
          Number of quadrature shells:    94
          Spatial weights used:  Erf1

          Convergence Information
          -----------------------
          Convergence aids based upon iterative change in 
          total energy or number of iterations. 
          Levelshifting, if invoked, occurs when the 
          HOMO/LUMO gap drops below (HL_TOL):  1.00D-02
          DIIS, if invoked, will attempt to extrapolate 
          using up to (NFOCK): 10 stored Fock matrices.

                    Damping( 0%)  Levelshifting(0.5)       DIIS
                  --------------- ------------------- ---------------
          dE  on:    start            ASAP                start   
          dE off:    2 iters         50 iters            50 iters 


      Screening Tolerance Information
      -------------------------------
          Density screening/tol_rho:  1.00D-10
          AO Gaussian exp screening on grid/accAOfunc:  14
          CD Gaussian exp screening on grid/accCDfunc:  20
          XC Gaussian exp screening on grid/accXCfunc:  20
          Schwarz screening/accCoul:  1.00D-08


 Loading old vectors from job with title :




      Symmetry analysis of molecular orbitals - initial
      -------------------------------------------------

  Numbering of irreducible representations: 

     1 a1          2 a2          3 b1          4 b2          5 e       

  Orbital symmetries:

     1 a1          2 a1          3 a1          4 e           5 e       
     6 a1          7 a1          8 a1          9 e          10 e       
    11 e          12 e          13 a1         14 a1         15 b2      

   Time after variat. SCF:      1.5
   Time prior to 1st pass:      1.6

 Grid_pts file          = ./oh-dat.gridpts.00
 Record size in doubles =  12289        No. of grid_pts per rec  =   3070
 Max. records in memory =      2        Max. recs in file   =    111032


           Memory utilization after 1st SCF pass: 
           Heap Space remaining (MW):       13.08            13080930
          Stack Space remaining (MW):       65.54            65535780

   convergence    iter        energy       DeltaE   RMS-Dens  Diis-err    time
 ---------------- ----- ----------------- --------- --------- ---------  ------
 d= 0,ls=0.0,diis     1    -75.6339356094 -7.99D+01  8.18D-04  8.12D-05     1.6
 d= 0,ls=0.0,diis     2    -75.6339468953 -1.13D-05  3.54D-04  4.16D-05     1.6
 d= 0,ls=0.0,diis     3    -75.6339487996 -1.90D-06  1.34D-04  2.74D-05     1.7
 d= 0,ls=0.0,diis     4    -75.6339513085 -2.51D-06  6.35D-06  4.33D-08     1.7
 d= 0,ls=0.0,diis     5    -75.6339513119 -3.47D-09  3.34D-06  4.68D-09     1.8


         Total DFT energy =      -75.633951311932
      One electron energy =     -116.950823513585
           Coulomb energy =       46.271550981747
    Exchange-Corr. energy =       -9.181128634944
 Nuclear repulsion energy =        4.226449854850

 Numeric. integr. density =        9.999999946529

     Total iterative time =      0.2s



                  Occupations of the irreducible representations
                  ----------------------------------------------

                     irrep           alpha         beta
                     --------     --------     --------
                     a1                3.0          3.0
                     a2                0.0          0.0
                     b1                0.0          0.0
                     b2                0.0          0.0
                     e                 2.0          2.0


                       DFT Final Molecular Orbital Analysis
                       ------------------------------------

 Vector    1  Occ=2.000000D+00  E=-1.826613D+01  Symmetry=a1
              MO Center=  8.7D-23,  1.8D-22,  1.2D-01, r^2= 1.5D-02
   Bfn.  Coefficient  Atom+Function         Bfn.  Coefficient  Atom+Function  
  ----- ------------  ---------------      ----- ------------  ---------------
     1      1.003211  1 O  s          

 Vector    2  Occ=2.000000D+00  E=-3.786380D-01  Symmetry=a1
              MO Center=  1.9D-16, -2.5D-17, -1.2D-01, r^2= 5.3D-01
   Bfn.  Coefficient  Atom+Function         Bfn.  Coefficient  Atom+Function  
  ----- ------------  ---------------      ----- ------------  ---------------
     3      0.442075  1 O  s                  2      0.423315  1 O  s          
    15      0.236826  2 H  s                  6     -0.116004  1 O  pz         
    16      0.078597  2 H  s                 19      0.037707  2 H  pz         

 Vector    3  Occ=2.000000D+00  E= 7.473395D-02  Symmetry=a1
              MO Center= -1.8D-16, -1.7D-16, -3.9D-02, r^2= 9.2D-01
   Bfn.  Coefficient  Atom+Function         Bfn.  Coefficient  Atom+Function  
  ----- ------------  ---------------      ----- ------------  ---------------
     3      0.466133  1 O  s                  6      0.448666  1 O  pz         
    15     -0.372817  2 H  s                  9      0.278387  1 O  pz         
    16     -0.235673  2 H  s                  2      0.152430  1 O  s          

 Vector    4  Occ=2.000000D+00  E= 2.302509D-01  Symmetry=e
              MO Center= -1.2D-16,  4.7D-17,  1.0D-01, r^2= 6.5D-01
   Bfn.  Coefficient  Atom+Function         Bfn.  Coefficient  Atom+Function  
  ----- ------------  ---------------      ----- ------------  ---------------
     4      0.484825  1 O  px                 7      0.447433  1 O  px         
     5     -0.341526  1 O  py                 8     -0.315186  1 O  py         
    17      0.029207  2 H  px         

 Vector    5  Occ=2.000000D+00  E= 2.302509D-01  Symmetry=e
              MO Center=  6.0D-17,  8.3D-17,  1.0D-01, r^2= 6.5D-01
   Bfn.  Coefficient  Atom+Function         Bfn.  Coefficient  Atom+Function  
  ----- ------------  ---------------      ----- ------------  ---------------
     5      0.484825  1 O  py                 8      0.447433  1 O  py         
     4      0.341526  1 O  px                 7      0.315186  1 O  px         
    18      0.029207  2 H  py         

 Vector    6  Occ=0.000000D+00  E= 3.561376D-01  Symmetry=a1
              MO Center= -3.9D-16, -1.1D-16, -9.6D-01, r^2= 2.3D+00
   Bfn.  Coefficient  Atom+Function         Bfn.  Coefficient  Atom+Function  
  ----- ------------  ---------------      ----- ------------  ---------------
    16      1.368225  2 H  s                  3     -0.759075  1 O  s          
     9      0.494750  1 O  pz                 6      0.315025  1 O  pz         
     2     -0.061778  1 O  s                  1      0.040093  1 O  s          
    19      0.025233  2 H  pz         

 Vector    7  Occ=0.000000D+00  E= 8.868324D-01  Symmetry=a1
              MO Center= -6.4D-17,  5.0D-17, -7.8D-01, r^2= 1.1D+00
   Bfn.  Coefficient  Atom+Function         Bfn.  Coefficient  Atom+Function  
  ----- ------------  ---------------      ----- ------------  ---------------
    15      1.250235  2 H  s                 16     -0.914166  2 H  s          
     6      0.420301  1 O  pz                19     -0.268797  2 H  pz         
     3      0.175055  1 O  s                  9      0.173305  1 O  pz         
     2     -0.139367  1 O  s                 12      0.093369  1 O  d  0       
     1     -0.035152  1 O  s          

 Vector    8  Occ=0.000000D+00  E= 1.270994D+00  Symmetry=a1
              MO Center=  1.6D-15, -5.3D-16,  5.5D-01, r^2= 1.1D+00
   Bfn.  Coefficient  Atom+Function         Bfn.  Coefficient  Atom+Function  
  ----- ------------  ---------------      ----- ------------  ---------------
     9      1.489148  1 O  pz                15      0.791010  2 H  s          
     6     -0.744233  1 O  pz                 3     -0.395738  1 O  s          
    19      0.315410  2 H  pz                 2     -0.260958  1 O  s          
    16      0.236459  2 H  s                  1     -0.061514  1 O  s          

 Vector    9  Occ=0.000000D+00  E= 1.280203D+00  Symmetry=e
              MO Center=  9.4D-18,  2.7D-17,  8.8D-02, r^2= 1.0D+00
   Bfn.  Coefficient  Atom+Function         Bfn.  Coefficient  Atom+Function  
  ----- ------------  ---------------      ----- ------------  ---------------
     5      0.947868  1 O  py                 8     -0.936302  1 O  py         
     4      0.284764  1 O  px                 7     -0.281289  1 O  px         
    18     -0.072640  2 H  py         

 Vector   10  Occ=0.000000D+00  E= 1.280203D+00  Symmetry=e
              MO Center= -1.4D-15,  4.2D-16,  8.8D-02, r^2= 1.0D+00
   Bfn.  Coefficient  Atom+Function         Bfn.  Coefficient  Atom+Function  
  ----- ------------  ---------------      ----- ------------  ---------------
     4      0.947868  1 O  px                 7     -0.936302  1 O  px         
     5     -0.284764  1 O  py                 8      0.281289  1 O  py         
    17     -0.072640  2 H  px         

 Vector   11  Occ=0.000000D+00  E= 1.639202D+00  Symmetry=e
              MO Center= -6.3D-18,  4.3D-18, -6.8D-01, r^2= 7.9D-01
   Bfn.  Coefficient  Atom+Function         Bfn.  Coefficient  Atom+Function  
  ----- ------------  ---------------      ----- ------------  ---------------
    18      0.829497  2 H  py                17      0.585704  2 H  px         
     8     -0.388433  1 O  py                 7     -0.274271  1 O  px         
    11     -0.114943  1 O  d -1              13      0.081161  1 O  d  1       
     5      0.053182  1 O  py                 4      0.037552  1 O  px         

 Vector   12  Occ=0.000000D+00  E= 1.639202D+00  Symmetry=e
              MO Center=  3.3D-18, -3.7D-18, -6.8D-01, r^2= 7.9D-01
   Bfn.  Coefficient  Atom+Function         Bfn.  Coefficient  Atom+Function  
  ----- ------------  ---------------      ----- ------------  ---------------
    17      0.829497  2 H  px                18     -0.585704  2 H  py         
     7     -0.388433  1 O  px                 8      0.274271  1 O  py         
    13      0.114943  1 O  d  1              11      0.081161  1 O  d -1       
     4      0.053182  1 O  px                 5     -0.037552  1 O  py         

 Vector   13  Occ=0.000000D+00  E= 1.773923D+00  Symmetry=a1
              MO Center=  1.6D-16,  5.4D-17, -1.4D-01, r^2= 1.2D+00
   Bfn.  Coefficient  Atom+Function         Bfn.  Coefficient  Atom+Function  
  ----- ------------  ---------------      ----- ------------  ---------------
     3      2.383509  1 O  s                  2     -1.674165  1 O  s          
     9     -0.725519  1 O  pz                 1     -0.715479  1 O  s          
    16     -0.704777  2 H  s                 15     -0.550151  2 H  s          
    19     -0.302148  2 H  pz                12     -0.062166  1 O  d  0       

 Vector   14  Occ=0.000000D+00  E= 2.353977D+00  Symmetry=a1
              MO Center= -1.2D-17, -2.0D-18, -7.3D-01, r^2= 6.6D-01
   Bfn.  Coefficient  Atom+Function         Bfn.  Coefficient  Atom+Function  
  ----- ------------  ---------------      ----- ------------  ---------------
    19      1.281345  2 H  pz                 6      0.698382  1 O  pz         
     3     -0.621378  1 O  s                 15      0.476066  2 H  s          
     2     -0.373305  1 O  s                 16      0.342165  2 H  s          
     9      0.182052  1 O  pz                12      0.135216  1 O  d  0       
     1     -0.124598  1 O  s          

 Vector   15  Occ=0.000000D+00  E= 3.010800D+00  Symmetry=b2
              MO Center=  4.7D-17,  5.0D-17,  1.2D-01, r^2= 4.1D-01
   Bfn.  Coefficient  Atom+Function         Bfn.  Coefficient  Atom+Function  
  ----- ------------  ---------------      ----- ------------  ---------------
    10      1.000000  1 O  d -2       

 Vector   16  Occ=0.000000D+00  E= 3.010800D+00  Symmetry=b1
              MO Center=  1.4D-17,  3.6D-17,  1.2D-01, r^2= 4.1D-01
   Bfn.  Coefficient  Atom+Function         Bfn.  Coefficient  Atom+Function  
  ----- ------------  ---------------      ----- ------------  ---------------
    14      1.000000  1 O  d  2       

 Vector   17  Occ=0.000000D+00  E= 3.268564D+00  Symmetry=e
              MO Center=  1.3D-18,  2.4D-17,  2.4D-02, r^2= 5.7D-01
   Bfn.  Coefficient  Atom+Function         Bfn.  Coefficient  Atom+Function  
  ----- ------------  ---------------      ----- ------------  ---------------
    11      0.996129  1 O  d -1              18      0.471282  2 H  py         
    13      0.308643  1 O  d  1               8     -0.183412  1 O  py         
    17     -0.146023  2 H  px                 7      0.056829  1 O  px         

 Vector   18  Occ=0.000000D+00  E= 3.268564D+00  Symmetry=e
              MO Center=  6.0D-17,  2.0D-17,  2.4D-02, r^2= 5.7D-01
   Bfn.  Coefficient  Atom+Function         Bfn.  Coefficient  Atom+Function  
  ----- ------------  ---------------      ----- ------------  ---------------
    13      0.996129  1 O  d  1              17     -0.471282  2 H  px         
    11     -0.308643  1 O  d -1               7      0.183412  1 O  px         
    18     -0.146023  2 H  py                 8      0.056829  1 O  py         

 Vector   19  Occ=0.000000D+00  E= 3.937392D+00  Symmetry=a1
              MO Center=  3.1D-18,  1.4D-17,  1.6D-02, r^2= 7.6D-01
   Bfn.  Coefficient  Atom+Function         Bfn.  Coefficient  Atom+Function  
  ----- ------------  ---------------      ----- ------------  ---------------
     3      1.446801  1 O  s                 15     -1.413412  2 H  s          
    12      1.243311  1 O  d  0              19     -1.042125  2 H  pz         
     9     -0.972564  1 O  pz                 6     -0.334649  1 O  pz         
    16     -0.305070  2 H  s                  2     -0.219128  1 O  s          
     1     -0.142289  1 O  s          


 center of mass
 --------------
 x =   0.00000000 y =   0.00000000 z =   0.12039132

 moments of inertia (a.u.)
 ------------------
           3.396852386902           0.000000000000           0.000000000000
           0.000000000000           3.396852386902           0.000000000000
           0.000000000000           0.000000000000           0.000000000000

     Multipole analysis of the density
     ---------------------------------

     L   x y z        total         alpha         beta         nuclear
     -   - - -        -----         -----         ----         -------
     0   0 0 0     -1.000000     -5.000000     -5.000000      9.000000

     1   1 0 0     -0.000000     -0.000000     -0.000000      0.000000
     1   0 1 0     -0.000000     -0.000000     -0.000000      0.000000
     1   0 0 1     -0.418061     -0.309256     -0.309256      0.200452

     2   2 0 0     -5.842966     -2.921483     -2.921483      0.000000
     2   1 1 0     -0.000000     -0.000000     -0.000000      0.000000
     2   1 0 1     -0.000000     -0.000000     -0.000000      0.000000
     2   0 2 0     -5.842966     -2.921483     -2.921483      0.000000
     2   0 1 1     -0.000000     -0.000000     -0.000000      0.000000
     2   0 0 2     -5.127014     -4.158117     -4.158117      3.189219


            General Information
            -------------------
          SCF calculation type: DFT
          Wavefunction type:  closed shell.
          No. of atoms     :     2
          No. of electrons :    10
           Alpha electrons :     5
            Beta electrons :     5
          Charge           :    -1
          Spin multiplicity:     1
          Use of symmetry is: on ; symmetry adaption is: on 
          Maximum number of iterations:  50
          This is a Direct SCF calculation.
          AO basis - number of functions:    19
                     number of shells:     9
          Convergence on energy requested:  1.00D-06
          Convergence on density requested:  1.00D-05
          Convergence on gradient requested:  5.00D-04

              XC Information
              --------------
          PerdewBurkeErnzerhof Exchange Functional  1.000          
            Perdew 1991 LDA Correlation Functional  1.000 local    
           PerdewBurkeErnz. Correlation Functional  1.000 non-local

             Grid Information
             ----------------
          Grid used for XC integration:  medium    
          Radial quadrature: Mura-Knowles        
          Angular quadrature: Lebedev. 
          Tag              B.-S. Rad. Rad. Pts. Rad. Cut. Ang. Pts.
          ---              ---------- --------- --------- ---------
          O                   0.60       49           5.0       434
          H                   0.35       45           5.0       434
          Grid pruning is: on 
          Number of quadrature shells:    94
          Spatial weights used:  Erf1

          Convergence Information
          -----------------------
          Convergence aids based upon iterative change in 
          total energy or number of iterations. 
          Levelshifting, if invoked, occurs when the 
          HOMO/LUMO gap drops below (HL_TOL):  1.00D-02
          DIIS, if invoked, will attempt to extrapolate 
          using up to (NFOCK): 10 stored Fock matrices.

                    Damping( 0%)  Levelshifting(0.5)       DIIS
                  --------------- ------------------- ---------------
          dE  on:    start            ASAP                start   
          dE off:    2 iters         50 iters            50 iters 


      Screening Tolerance Information
      -------------------------------
          Density screening/tol_rho:  1.00D-10
          AO Gaussian exp screening on grid/accAOfunc:  14
          CD Gaussian exp screening on grid/accCDfunc:  20
          XC Gaussian exp screening on grid/accXCfunc:  20
          Schwarz screening/accCoul:  1.00D-08

  texas integral default override: limxmem =             50000000
  texas integral default override: limxmem =             50000000


                            NWChem DFT Gradient Module
                            --------------------------



  charge          =  -1.00
  wavefunction    = closed shell

  Using symmetry
  texas integral default override: limxmem =             50000000
  texas integral default override: limxmem =             50000000


                         DFT ENERGY GRADIENTS

    atom               coordinates                        gradient
                 x          y          z           x          y          z
   1 O       0.000000   0.000000   0.232588    0.000000   0.000000  -0.000490
   2 H       0.000000   0.000000  -1.660253    0.000000   0.000000   0.000490

                 ----------------------------------------
                 |  Time  |  1-e(secs)   |  2-e(secs)   |
                 ----------------------------------------
                 |  CPU   |       0.00   |       0.02   |
                 ----------------------------------------
                 |  WALL  |       0.00   |       0.02   |
                 ----------------------------------------
  no constraints, skipping    0.0000000000000000     

  Step       Energy      Delta E   Gmax     Grms     Xrms     Xmax   Walltime
  ---- ---------------- -------- -------- -------- -------- -------- --------
@    1     -75.63395131 -7.0D-04  0.00049  0.00049  0.01653  0.02864      1.9
                                                                    



                                Z-matrix (autoz)
                                -------- 

 Units are Angstrom for bonds and degrees for angles

      Type          Name      I     J     K     L     M      Value     Gradient
      ----------- --------  ----- ----- ----- ----- ----- ---------- ----------
    1 Stretch                  1     2                       1.00165   -0.00049

  no constraints, skipping    0.0000000000000000     
  no constraints, skipping    0.0000000000000000     
  no constraints, skipping    0.0000000000000000     

                                 NWChem DFT Module
                                 -----------------




 Summary of "ao basis" -> "cc-pvdz" (spherical)
 ------------------------------------------------------------------------------
       Tag                 Description            Shells   Functions and Types
 ---------------- ------------------------------  ------  ---------------------
 O                          cc-pvdz                  6       14   3s2p1d
 H                          cc-pvdz                  3        5   2s1p


      Symmetry analysis of basis
      --------------------------

        a1          9
        a2          0
        b1          1
        b2          1
        e           8

  texas integral default override: limxmem =             50000000
  Caching 1-el integrals 

            General Information
            -------------------
          SCF calculation type: DFT
          Wavefunction type:  closed shell.
          No. of atoms     :     2
          No. of electrons :    10
           Alpha electrons :     5
            Beta electrons :     5
          Charge           :    -1
          Spin multiplicity:     1
          Use of symmetry is: on ; symmetry adaption is: on 
          Maximum number of iterations:  50
          This is a Direct SCF calculation.
          AO basis - number of functions:    19
                     number of shells:     9
          Convergence on energy requested:  1.00D-06
          Convergence on density requested:  1.00D-05
          Convergence on gradient requested:  5.00D-04

              XC Information
              --------------
          PerdewBurkeErnzerhof Exchange Functional  1.000          
            Perdew 1991 LDA Correlation Functional  1.000 local    
           PerdewBurkeErnz. Correlation Functional  1.000 non-local

             Grid Information
             ----------------
          Grid used for XC integration:  medium    
          Radial quadrature: Mura-Knowles        
          Angular quadrature: Lebedev. 
          Tag              B.-S. Rad. Rad. Pts. Rad. Cut. Ang. Pts.
          ---              ---------- --------- --------- ---------
          O                   0.60       49           5.0       434
          H                   0.35       45           5.0       434
          Grid pruning is: on 
          Number of quadrature shells:    94
          Spatial weights used:  Erf1

          Convergence Information
          -----------------------
          Convergence aids based upon iterative change in 
          total energy or number of iterations. 
          Levelshifting, if invoked, occurs when the 
          HOMO/LUMO gap drops below (HL_TOL):  1.00D-02
          DIIS, if invoked, will attempt to extrapolate 
          using up to (NFOCK): 10 stored Fock matrices.

                    Damping( 0%)  Levelshifting(0.5)       DIIS
                  --------------- ------------------- ---------------
          dE  on:    start            ASAP                start   
          dE off:    2 iters         50 iters            50 iters 


      Screening Tolerance Information
      -------------------------------
          Density screening/tol_rho:  1.00D-10
          AO Gaussian exp screening on grid/accAOfunc:  14
          CD Gaussian exp screening on grid/accCDfunc:  20
          XC Gaussian exp screening on grid/accXCfunc:  20
          Schwarz screening/accCoul:  1.00D-08


 Loading old vectors from job with title :




      Symmetry analysis of molecular orbitals - initial
      -------------------------------------------------

  Numbering of irreducible representations: 

     1 a1          2 a2          3 b1          4 b2          5 e       

  Orbital symmetries:

     1 a1          2 a1          3 a1          4 e           5 e       
     6 a1          7 a1          8 a1          9 e          10 e       
    11 e          12 e          13 a1         14 a1         15 b2      

   Time after variat. SCF:      2.0
   Time prior to 1st pass:      2.0

 Grid_pts file          = ./oh-dat.gridpts.00
 Record size in doubles =  12289        No. of grid_pts per rec  =   3070
 Max. records in memory =      2        Max. recs in file   =    111032


           Memory utilization after 1st SCF pass: 
           Heap Space remaining (MW):       13.08            13080930
          Stack Space remaining (MW):       65.54            65535780

   convergence    iter        energy       DeltaE   RMS-Dens  Diis-err    time
[...]

 Vector  226  Occ=0.000000D+00  E= 3.470573D+01  Symmetry=e
              MO Center= -1.3D-17,  1.8D-17, -5.2D-01, r^2= 3.5D-01
   Bfn.  Coefficient  Atom+Function         Bfn.  Coefficient  Atom+Function  
  ----- ------------  ---------------      ----- ------------  ---------------
    42     -2.411829  1 O  d -1              18      2.372054  1 O  py         
   173     -2.325213  2 H  d -1             157     -2.266597  2 H  py         
   151      2.094882  2 H  py               148     -1.611246  2 H  py         
   154     -1.278371  2 H  py                32     -1.110652  1 O  d -1       
   198     -0.903355  2 H  f -1              27      0.875413  1 O  d -1       

 Vector  227  Occ=0.000000D+00  E= 3.800538D+01  Symmetry=a1
              MO Center=  5.9D-18,  1.4D-17, -3.7D-02, r^2= 3.3D-01
   Bfn.  Coefficient  Atom+Function         Bfn.  Coefficient  Atom+Function  
  ----- ------------  ---------------      ----- ------------  ---------------
     6     25.158259  1 O  s                143    -23.324800  2 H  s          
   144    -20.856669  2 H  s                 19    -19.186012  1 O  pz         
   158    -18.628597  2 H  pz                 5     17.595664  1 O  s          
     4    -10.281201  1 O  s                 16    -10.199350  1 O  pz         
   155     -9.994951  2 H  pz                43      7.975833  1 O  d  0       

 Vector  228  Occ=0.000000D+00  E= 3.826292D+01  Symmetry=e
              MO Center= -7.1D-19,  3.0D-17, -2.9D-01, r^2= 4.1D-01
   Bfn.  Coefficient  Atom+Function         Bfn.  Coefficient  Atom+Function  
  ----- ------------  ---------------      ----- ------------  ---------------
   157     -7.430631  2 H  py                18      7.384929  1 O  py         
   173     -6.773696  2 H  d -1              42     -6.738621  1 O  d -1       
   154     -5.136436  2 H  py                67      4.687936  1 O  f -1       
    37     -3.876210  1 O  d -1             191     -3.069224  2 H  f -1       
   151      2.951741  2 H  py                15      2.756838  1 O  py         

 Vector  229  Occ=0.000000D+00  E= 3.826292D+01  Symmetry=e
              MO Center=  2.0D-17, -3.6D-18, -2.9D-01, r^2= 4.1D-01
   Bfn.  Coefficient  Atom+Function         Bfn.  Coefficient  Atom+Function  
  ----- ------------  ---------------      ----- ------------  ---------------
   156     -7.430631  2 H  px                17      7.384929  1 O  px         
   175      6.773696  2 H  d  1              44      6.738621  1 O  d  1       
   153     -5.136436  2 H  px                69     -4.687936  1 O  f  1       
    39      3.876210  1 O  d  1             193      3.069224  2 H  f  1       
   150      2.951741  2 H  px                14      2.756838  1 O  px         

 Vector  230  Occ=0.000000D+00  E= 4.045622D+01  Symmetry=a1
              MO Center=  1.1D-17, -7.2D-19, -8.0D-01, r^2= 2.7D-01
   Bfn.  Coefficient  Atom+Function         Bfn.  Coefficient  Atom+Function  
  ----- ------------  ---------------      ----- ------------  ---------------
   143     23.553753  2 H  s                  6    -22.050582  1 O  s          
   144     20.597421  2 H  s                158     20.666337  2 H  pz         
     5    -20.062497  1 O  s                 19     16.126503  1 O  pz         
    16     12.165232  1 O  pz               155     10.191562  2 H  pz         
   174      9.258408  2 H  d  0             142     -8.450039  2 H  s          

 Vector  231  Occ=0.000000D+00  E= 1.026081D+02  Symmetry=a1
              MO Center= -5.5D-19,  7.3D-19,  1.1D-01, r^2= 9.3D-02
   Bfn.  Coefficient  Atom+Function         Bfn.  Coefficient  Atom+Function  
  ----- ------------  ---------------      ----- ------------  ---------------
     2     29.426316  1 O  s                  1     26.498539  1 O  s          
     6     11.734964  1 O  s                 19    -10.297580  1 O  pz         
   143     -7.718444  2 H  s                  3      6.882268  1 O  s          
     4     -6.702621  1 O  s                144     -6.305320  2 H  s          
    43      5.326634  1 O  d  0              16      4.632623  1 O  pz         


 center of mass
 --------------
 x =   0.00000000 y =   0.00000000 z =   0.09611021

 moments of inertia (a.u.)
 ------------------
           3.201991008205           0.000000000000           0.000000000000
           0.000000000000           3.201991008205           0.000000000000
           0.000000000000           0.000000000000           0.000000000000

     Multipole analysis of the density
     ---------------------------------

     L   x y z        total         alpha         beta         nuclear
     -   - - -        -----         -----         ----         -------
     0   0 0 0     -1.000000     -5.000000     -5.000000      9.000000

     1   1 0 0     -0.000000     -0.000000     -0.000000      0.000000
     1   0 1 0     -0.000000     -0.000000     -0.000000      0.000000
     1   0 0 1     -0.543958     -0.275791     -0.275791      0.007625

     2   2 0 0     -7.693487     -3.846743     -3.846743      0.000000
     2   1 1 0     -0.000000     -0.000000     -0.000000      0.000000
     2   1 0 1     -0.000000     -0.000000     -0.000000      0.000000
     2   0 2 0     -7.693487     -3.846743     -3.846743      0.000000
     2   0 1 1     -0.000000     -0.000000     -0.000000      0.000000
     2   0 0 2     -6.066723     -4.534395     -4.534395      3.002067

 Line search: 
     step= 1.00 grad=-3.6D-07 hess= 3.4D-07 energy=    -75.755428 mode=accept  
 new step= 1.00                   predicted energy=    -75.755428
  no constraints, skipping    0.0000000000000000     
  no constraints, skipping    0.0000000000000000     
  no constraints, skipping    0.0000000000000000     

          --------
          Step   1
          --------


                         Geometry "geometry" -> "geometry"
                         ---------------------------------

 Output coordinates in angstroms (scale by  1.889725989 to convert to a.u.)

  No.       Tag          Charge          X              Y              Z
 ---- ---------------- ---------- -------------- -------------- --------------
    1 O                    8.0000     0.00000000     0.00000000     0.10850325
    2 H                    1.0000     0.00000000     0.00000000    -0.86399123

      Atomic Mass 
      ----------- 

      O                 15.994910
      H                  1.007825


 Effective nuclear repulsion energy (a.u.)       4.3531537255

            Nuclear Dipole moment (a.u.) 
            ----------------------------
        X                 Y               Z
 ---------------- ---------------- ----------------
     0.0000000000     0.0000000000     0.0076246615

      Symmetry information
      --------------------

 Group name             C4v       
 Group number             18
 Group order               8
 No. of unique centers     2

      Symmetry unique atoms

     1    2


                                 NWChem DFT Module
                                 -----------------




 Summary of "ao basis" -> "cc-pv6z" (spherical)
 ------------------------------------------------------------------------------
       Tag                 Description            Shells   Functions and Types
 ---------------- ------------------------------  ------  ---------------------
 O                          cc-pv6z                 28      140   7s6p5d4f3g2h1i
 H                          cc-pv6z                 21       91   6s5p4d3f2g1h


      Symmetry analysis of basis
      --------------------------

        a1         58
        a2          9
        b1         26
        b2         26
        e         112


  The DFT is already converged 

         Total DFT energy =    -75.755428174118


            General Information
            -------------------
          SCF calculation type: DFT
          Wavefunction type:  closed shell.
          No. of atoms     :     2
          No. of electrons :    10
           Alpha electrons :     5
            Beta electrons :     5
          Charge           :    -1
          Spin multiplicity:     1
          Use of symmetry is: on ; symmetry adaption is: on 
          Maximum number of iterations:  50
          This is a Direct SCF calculation.
          AO basis - number of functions:   231
                     number of shells:    49
          Convergence on energy requested:  1.00D-06
          Convergence on density requested:  1.00D-05
          Convergence on gradient requested:  5.00D-04

              XC Information
              --------------
          PerdewBurkeErnzerhof Exchange Functional  1.000          
            Perdew 1991 LDA Correlation Functional  1.000 local    
           PerdewBurkeErnz. Correlation Functional  1.000 non-local

             Grid Information
             ----------------
          Grid used for XC integration:  medium    
          Radial quadrature: Mura-Knowles        
          Angular quadrature: Lebedev. 
          Tag              B.-S. Rad. Rad. Pts. Rad. Cut. Ang. Pts.
          ---              ---------- --------- --------- ---------
          O                   0.60       49           7.0       434
          H                   0.35       45           7.0       434
          Grid pruning is: on 
          Number of quadrature shells:    94
          Spatial weights used:  Erf1

          Convergence Information
          -----------------------
          Convergence aids based upon iterative change in 
          total energy or number of iterations. 
          Levelshifting, if invoked, occurs when the 
          HOMO/LUMO gap drops below (HL_TOL):  1.00D-02
          DIIS, if invoked, will attempt to extrapolate 
          using up to (NFOCK): 10 stored Fock matrices.

                    Damping( 0%)  Levelshifting(0.5)       DIIS
                  --------------- ------------------- ---------------
          dE  on:    start            ASAP                start   
          dE off:    2 iters         50 iters            50 iters 


      Screening Tolerance Information
      -------------------------------
          Density screening/tol_rho:  1.00D-10
          AO Gaussian exp screening on grid/accAOfunc:  14
          CD Gaussian exp screening on grid/accCDfunc:  20
          XC Gaussian exp screening on grid/accXCfunc:  20
          Schwarz screening/accCoul:  1.00D-08

  texas integral default override: limxmem =             50000000
  texas integral default override: limxmem =             50000000


                            NWChem DFT Gradient Module
                            --------------------------



  charge          =  -1.00
  wavefunction    = closed shell

  Using symmetry
  texas integral default override: limxmem =             50000000
  texas integral default override: limxmem =             50000000


                         DFT ENERGY GRADIENTS

    atom               coordinates                        gradient
                 x          y          z           x          y          z
   1 O       0.000000   0.000000   0.205041    0.000000   0.000000  -0.000116
   2 H       0.000000   0.000000  -1.632707    0.000000   0.000000   0.000116

                 ----------------------------------------
                 |  Time  |  1-e(secs)   |  2-e(secs)   |
                 ----------------------------------------
                 |  CPU   |       0.08   |      16.62   |
                 ----------------------------------------
                 |  WALL  |       0.08   |      16.62   |
                 ----------------------------------------
  no constraints, skipping    0.0000000000000000     

  Step       Energy      Delta E   Gmax     Grms     Xrms     Xmax   Walltime
  ---- ---------------- -------- -------- -------- -------- -------- --------
@    1     -75.75542817 -1.9D-08  0.00012  0.00012  0.00031  0.00053    475.2
                                     ok       ok       ok       ok  



                                Z-matrix (autoz)
                                -------- 

 Units are Angstrom for bonds and degrees for angles

      Type          Name      I     J     K     L     M      Value     Gradient
      ----------- --------  ----- ----- ----- ----- ----- ---------- ----------
    1 Stretch                  1     2                       0.97249   -0.00012


      ----------------------
      Optimization converged
      ----------------------


  Step       Energy      Delta E   Gmax     Grms     Xrms     Xmax   Walltime
  ---- ---------------- -------- -------- -------- -------- -------- --------
@    1     -75.75542817 -1.9D-08  0.00012  0.00012  0.00031  0.00053    475.2
                                     ok       ok       ok       ok  



                                Z-matrix (autoz)
                                -------- 

 Units are Angstrom for bonds and degrees for angles

      Type          Name      I     J     K     L     M      Value     Gradient
      ----------- --------  ----- ----- ----- ----- ----- ---------- ----------
    1 Stretch                  1     2                       0.97249   -0.00012



                         Geometry "geometry" -> "geometry"
                         ---------------------------------

 Output coordinates in angstroms (scale by  1.889725989 to convert to a.u.)

  No.       Tag          Charge          X              Y              Z
 ---- ---------------- ---------- -------------- -------------- --------------
    1 O                    8.0000     0.00000000     0.00000000     0.10850325
    2 H                    1.0000     0.00000000     0.00000000    -0.86399123

      Atomic Mass 
      ----------- 

      O                 15.994910
      H                  1.007825


 Effective nuclear repulsion energy (a.u.)       4.3531537255

            Nuclear Dipole moment (a.u.) 
            ----------------------------
        X                 Y               Z
 ---------------- ---------------- ----------------
     0.0000000000     0.0000000000     0.0076246615

      Symmetry information
      --------------------

 Group name             C4v       
 Group number             18
 Group order               8
 No. of unique centers     2

      Symmetry unique atoms

     1    2


                Final and change from initial internal coordinates
                --------------------------------------------------



                                Z-matrix (autoz)
                                -------- 

 Units are Angstrom for bonds and degrees for angles

      Type          Name      I     J     K     L     M      Value       Change
      ----------- --------  ----- ----- ----- ----- ----- ---------- ----------
    1 Stretch                  1     2                       0.97249   -0.00056

 ==============================================================================
                                internuclear distances
 ------------------------------------------------------------------------------
       center one      |      center two      | atomic units |  angstroms
 ------------------------------------------------------------------------------
    2 H                |   1 O                |     1.83775  |     0.97249
 ------------------------------------------------------------------------------
                         number of included internuclear distances:          1
 ==============================================================================




 Task  times  cpu:      401.7s     wall:      402.0s


                                NWChem Input Module
                                -------------------


 Summary of allocated global arrays
-----------------------------------
  No active global arrays


MA_summarize_allocated_blocks: starting scan ...
MA_summarize_allocated_blocks: scan completed: 0 heap blocks, 0 stack blocks
MA usage statistics:

	allocation statistics:
					      heap	     stack
					      ----	     -----
	current number of blocks	         0	         0
	maximum number of blocks	        25	        58
	current total bytes		         0	         0
	maximum total bytes		    271504	 572320280
	maximum total K-bytes		       272	    572321
	maximum total M-bytes		         1	       573


                                     CITATION
                                     --------
                Please cite the following reference when publishing
                           results obtained with NWChem:

          E. Apra, E. J. Bylaska, W. A. de Jong, N. Govind, K. Kowalski,
       T. P. Straatsma, M. Valiev, H. J. J. van Dam, Y. Alexeev, J. Anchell,
       V. Anisimov, F. W. Aquino, R. Atta-Fynn, J. Autschbach, N. P. Bauman,
     J. C. Becca, D. E. Bernholdt, K. Bhaskaran-Nair, S. Bogatko, P. Borowski,
         J. Boschen, J. Brabec, A. Bruner, E. Cauet, Y. Chen, G. N. Chuev,
      C. J. Cramer, J. Daily, M. J. O. Deegan, T. H. Dunning Jr., M. Dupuis,
   K. G. Dyall, G. I. Fann, S. A. Fischer, A. Fonari, H. Fruchtl, L. Gagliardi,
      J. Garza, N. Gawande, S. Ghosh, K. Glaesemann, A. W. Gotz, J. Hammond,
       V. Helms, E. D. Hermes, K. Hirao, S. Hirata, M. Jacquelin, L. Jensen,
   B. G. Johnson, H. Jonsson, R. A. Kendall, M. Klemm, R. Kobayashi, V. Konkov,
      S. Krishnamoorthy, M. Krishnan, Z. Lin, R. D. Lins, R. J. Littlefield,
      A. J. Logsdail, K. Lopata, W. Ma, A. V. Marenich, J. Martin del Campo,
   D. Mejia-Rodriguez, J. E. Moore, J. M. Mullin, T. Nakajima, D. R. Nascimento,
    J. A. Nichols, P. J. Nichols, J. Nieplocha, A. Otero-de-la-Roza, B. Palmer,
    A. Panyala, T. Pirojsirikul, B. Peng, R. Peverati, J. Pittner, L. Pollack,
   R. M. Richard, P. Sadayappan, G. C. Schatz, W. A. Shelton, D. W. Silverstein,
   D. M. A. Smith, T. A. Soares, D. Song, M. Swart, H. L. Taylor, G. S. Thomas,
            V. Tipparaju, D. G. Truhlar, K. Tsemekhman, T. Van Voorhis,
      A. Vazquez-Mayagoitia, P. Verma, O. Villa, A. Vishnu, K. D. Vogiatzis,
        D. Wang, J. H. Weare, M. J. Williamson, T. L. Windus, K. Wolinski,
        A. T. Wong, Q. Wu, C. Yang, Q. Yu, M. Zacharias, Z. Zhang, Y. Zhao,
                                and R. J. Harrison
                        "NWChem: Past, present, and future
                         J. Chem. Phys. 152, 184102 (2020)
                               doi:10.1063/5.0004997

                                      AUTHORS
                                      -------
  E. Apra, E. J. Bylaska, N. Govind, K. Kowalski, M. Valiev, D. Mejia-Rodriguez,
       A. Kunitsa, N. P. Bauman, A. Panyala, W. A. de Jong, T. P. Straatsma,
        H. J. J. van Dam, D. Wang, T. L. Windus, J. Hammond, J. Autschbach,
    K. Bhaskaran-Nair, J. Brabec, K. Lopata, S. A. Fischer, S. Krishnamoorthy,
     M. Jacquelin, W. Ma, M. Klemm, O. Villa, Y. Chen, V. Anisimov, F. Aquino,
    S. Hirata, M. T. Hackler, Eric Hermes, L. Jensen, J. E. Moore, J. C. Becca,
      V. Konjkov, T. Risthaus, M. Malagoli, A. Marenich, A. Otero-de-la-Roza,
        J. Mullin, P. Nichols, R. Peverati, J. Pittner, Y. Zhao, P.-D. Fan,
        A. Fonari, M. J. Williamson, R. J. Harrison, J. R. Rehr, M. Dupuis,
     D. Silverstein, D. M. A. Smith, J. Nieplocha, V. Tipparaju, M. Krishnan,
     B. E. Van Kuiken, A. Vazquez-Mayagoitia, M. Swart, Q. Wu, T. Van Voorhis,
     A. A. Auer, M. Nooijen, L. D. Crosby, E. Brown, G. Cisneros, G. I. Fann,
   H. Fruchtl, J. Garza, K. Hirao, R. A. Kendall, J. A. Nichols, K. Tsemekhman,
    K. Wolinski, J. Anchell, D. E. Bernholdt, P. Borowski, T. Clark, D. Clerc,
   H. Dachsel, M. J. O. Deegan, K. Dyall, D. Elwood, E. Glendening, M. Gutowski,
   A. C. Hess, J. Jaffe, B. G. Johnson, J. Ju, R. Kobayashi, R. Kutteh, Z. Lin,
   R. Littlefield, X. Long, B. Meng, T. Nakajima, S. Niu, L. Pollack, M. Rosing,
   K. Glaesemann, G. Sandrone, M. Stave, H. Taylor, G. Thomas, J. H. van Lenthe,
                               A. T. Wong, Z. Zhang.

 Total times  cpu:      474.5s     wall:      475.3s
