 argument  1 = oh-dft-pbe-aug.nw



============================== echo of input deck ==============================
echo
start oh-dat

memory heap 100 mb stack 500 mb global 1024 mb

geometry
  load ../xyz/oh-.xyz
  #load oh-.xyz
end

charge -1

basis "cc-pvdz" spherical
  * library aug-cc-pvdz
end
basis "cc-pvtz" spherical
  * library aug-cc-pvtz
end
basis "cc-pvqz" spherical
  * library aug-cc-pvqz
end
basis "cc-pv5z" spherical
  * library aug-cc-pv5z
end
basis "cc-pv6z" spherical
  * library aug-cc-pv6z
end

dft
  direct
  # select PBE functional following https://doi.org/10.1002/aic.15517
  xc xpbe96 cpbe96
end

set int:txs:limxmem              50000000

set "ao basis" "cc-pvdz"
task dft optimize

set "ao basis" "cc-pvtz"
task dft optimize

set "ao basis" "cc-pvqz"
task dft optimize

set "ao basis" "cc-pv5z"
task dft optimize

set "ao basis" "cc-pv6z"
task dft optimize
================================================================================


                                         
                                         


             Northwest Computational Chemistry Package (NWChem) 7.0.1
             --------------------------------------------------------


                    Environmental Molecular Sciences Laboratory
                       Pacific Northwest National Laboratory
                                Richland, WA 99352

                              Copyright (c) 1994-2020
                       Pacific Northwest National Laboratory
                            Battelle Memorial Institute

             NWChem is an open-source computational chemistry package
                        distributed under the terms of the
                      Educational Community License (ECL) 2.0
             A copy of the license is included with this distribution
                              in the LICENSE.TXT file

                                  ACKNOWLEDGMENT
                                  --------------

            This software and its documentation were developed at the
            EMSL at Pacific Northwest National Laboratory, a multiprogram
            national laboratory, operated for the U.S. Department of Energy
            by Battelle under Contract Number DE-AC05-76RL01830. Support
            for this work was provided by the Department of Energy Office
            of Biological and Environmental Research, Office of Basic
            Energy Sciences, and the Office of Advanced Scientific Computing.


           Job information
           ---------------

    hostname        = node03
    program         = /home/hvandam/nwchem-1-srp-hpc/QA/tests/ZSM-5/nwc/../../../../bin/LINUX64/nwchem
    date            = Fri Jun  2 23:20:34 2023

    compiled        = Fri_Jun_02_17:17:24_2023
    source          = /home/hvandam/nwchem-1-srp-hpc
    nwchem branch   = 7.0.0
    nwchem revision = nwchem_on_git-4134-gde132dc
    ga revision     = 5.8.1
    use scalapack   = F
    input           = oh-dft-pbe-aug.nw
    prefix          = oh-dat.
    data base       = ./oh-dat.db
    status          = startup
    nproc           =       16
    time left       =  86398s



           Memory information
           ------------------

    heap     =   13107194 doubles =    100.0 Mbytes
    stack    =   65535999 doubles =    500.0 Mbytes
    global   =  134217728 doubles =   1024.0 Mbytes (distinct from heap & stack)
    total    =  212860921 doubles =   1624.0 Mbytes
    verify   = yes
    hardfail = no 


           Directory information
           ---------------------

  0 permanent = .
  0 scratch   = .




                                NWChem Input Module
                                -------------------



 Scaling coordinates for geometry "geometry" by  1.889725989
 (inverse scale =  0.529177249)

 ORDER OF PRIMARY AXIS IS BEING SET TO 4
 C4V symmetry detected

          ------
          auto-z
          ------
  no constraints, skipping    0.0000000000000000     
  no constraints, skipping    0.0000000000000000     


                             Geometry "geometry" -> ""
                             -------------------------

 Output coordinates in angstroms (scale by  1.889725989 to convert to a.u.)

  No.       Tag          Charge          X              Y              Z
 ---- ---------------- ---------- -------------- -------------- --------------
    1 O                    8.0000     0.00000000     0.00000000     0.10792685
    2 H                    1.0000     0.00000000     0.00000000    -0.86341483

      Atomic Mass 
      ----------- 

      O                 15.994910
      H                  1.007825


 Effective nuclear repulsion energy (a.u.)       4.3583200974

            Nuclear Dipole moment (a.u.) 
            ----------------------------
        X                 Y               Z
 ---------------- ---------------- ----------------
     0.0000000000     0.0000000000     0.0000000000

      Symmetry information
      --------------------

 Group name             C4v       
 Group number             18
 Group order               8
 No. of unique centers     2

      Symmetry unique atoms

     1    2



                                Z-matrix (autoz)
                                -------- 

 Units are Angstrom for bonds and degrees for angles

      Type          Name      I     J     K     L     M      Value
      ----------- --------  ----- ----- ----- ----- ----- ----------
    1 Stretch                  1     2                       0.97134


            XYZ format geometry
            -------------------
     2
 geometry
 O                     0.00000000     0.00000000     0.10792685
 H                     0.00000000     0.00000000    -0.86341483

 ==============================================================================
                                internuclear distances
 ------------------------------------------------------------------------------
       center one      |      center two      | atomic units |  angstroms
 ------------------------------------------------------------------------------
    2 H                |   1 O                |     1.83557  |     0.97134
 ------------------------------------------------------------------------------
                         number of included internuclear distances:          1
 ==============================================================================





 Summary of "cc-pvdz" -> "" (spherical)
 ------------------------------------------------------------------------------
       Tag                 Description            Shells   Functions and Types
 ---------------- ------------------------------  ------  ---------------------
 *                        aug-cc-pvdz                 on all atoms 




 Summary of "cc-pvtz" -> "" (spherical)
 ------------------------------------------------------------------------------
       Tag                 Description            Shells   Functions and Types
 ---------------- ------------------------------  ------  ---------------------
 *                        aug-cc-pvtz                 on all atoms 




 Summary of "cc-pvqz" -> "" (spherical)
 ------------------------------------------------------------------------------
       Tag                 Description            Shells   Functions and Types
 ---------------- ------------------------------  ------  ---------------------
 *                        aug-cc-pvqz                 on all atoms 




 Summary of "cc-pv5z" -> "" (spherical)
 ------------------------------------------------------------------------------
       Tag                 Description            Shells   Functions and Types
 ---------------- ------------------------------  ------  ---------------------
 *                        aug-cc-pv5z                 on all atoms 




 Summary of "cc-pv6z" -> "" (spherical)
 ------------------------------------------------------------------------------
       Tag                 Description            Shells   Functions and Types
 ---------------- ------------------------------  ------  ---------------------
 *                        aug-cc-pv6z                 on all atoms 


  pbe96 is a nonlocal functional; adding pw91lda local functional. 


                           NWChem Geometry Optimization
                           ----------------------------


  no constraints, skipping    0.0000000000000000     
 maximum gradient threshold         (gmax) =   0.000450
 rms gradient threshold             (grms) =   0.000300
 maximum cartesian step threshold   (xmax) =   0.001800
 rms cartesian step threshold       (xrms) =   0.001200
 fixed trust radius                (trust) =   0.300000
 maximum step size to saddle      (sadstp) =   0.100000
 energy precision                  (eprec) =   5.0D-06
 maximum number of steps          (nptopt) =   40
 initial hessian option           (inhess) =    0
 line search option               (linopt) =    1
 hessian update option            (modupd) =    1
 saddle point option              (modsad) =    0
 initial eigen-mode to follow     (moddir) =    0
 initial variable to follow       (vardir) =    0
 follow first negative mode     (firstneg) =    T
 apply conjugacy                    (opcg) =    F
 source of zmatrix                         =   autoz   


          -------------------
          Energy Minimization
          -------------------


 Names of Z-matrix variables 
    1         

 Variables with the same non-blank name are constrained to be equal


 Using diagonal initial Hessian 
 Scaling for Hessian diagonals: bonds = 1.00  angles = 0.25  torsions = 0.10

          --------
          Step   0
          --------


                         Geometry "geometry" -> "geometry"
                         ---------------------------------

 Output coordinates in angstroms (scale by  1.889725989 to convert to a.u.)

  No.       Tag          Charge          X              Y              Z
 ---- ---------------- ---------- -------------- -------------- --------------
    1 O                    8.0000     0.00000000     0.00000000     0.10792685
    2 H                    1.0000     0.00000000     0.00000000    -0.86341483

      Atomic Mass 
      ----------- 

      O                 15.994910
      H                  1.007825


 Effective nuclear repulsion energy (a.u.)       4.3583200974

            Nuclear Dipole moment (a.u.) 
            ----------------------------
        X                 Y               Z
 ---------------- ---------------- ----------------
     0.0000000000     0.0000000000     0.0000000000

      Symmetry information
      --------------------

 Group name             C4v       
 Group number             18
 Group order               8
 No. of unique centers     2

      Symmetry unique atoms

     1    2


                                 NWChem DFT Module
                                 -----------------


                      Basis "ao basis" -> "cc-pvdz" (spherical)
                      -----
  O (Oxygen)
  ----------
            Exponent  Coefficients 
       -------------- ---------------------------------------------------------
  1 S  1.17200000E+04  0.000710
  1 S  1.75900000E+03  0.005470
  1 S  4.00800000E+02  0.027837
  1 S  1.13700000E+02  0.104800
  1 S  3.70300000E+01  0.283062
  1 S  1.32700000E+01  0.448719
  1 S  5.02500000E+00  0.270952
  1 S  1.01300000E+00  0.015458

  2 S  1.17200000E+04 -0.000160
  2 S  1.75900000E+03 -0.001263
  2 S  4.00800000E+02 -0.006267
  2 S  1.13700000E+02 -0.025716
  2 S  3.70300000E+01 -0.070924
  2 S  1.32700000E+01 -0.165411
  2 S  5.02500000E+00 -0.116955
  2 S  1.01300000E+00  0.557368

  3 S  3.02300000E-01  1.000000

  4 S  7.89600000E-02  1.000000

  5 P  1.77000000E+01  0.043018
  5 P  3.85400000E+00  0.228913
  5 P  1.04600000E+00  0.508728

  6 P  2.75300000E-01  1.000000

  7 P  6.85600000E-02  1.000000

  8 D  1.18500000E+00  1.000000

  9 D  3.32000000E-01  1.000000

  H (Hydrogen)
  ------------
            Exponent  Coefficients 
       -------------- ---------------------------------------------------------
  1 S  1.30100000E+01  0.019685
  1 S  1.96200000E+00  0.137977
  1 S  4.44600000E-01  0.478148

  2 S  1.22000000E-01  1.000000

  3 S  2.97400000E-02  1.000000

  4 P  7.27000000E-01  1.000000

  5 P  1.41000000E-01  1.000000



 Summary of "ao basis" -> "cc-pvdz" (spherical)
 ------------------------------------------------------------------------------
       Tag                 Description            Shells   Functions and Types
 ---------------- ------------------------------  ------  ---------------------
 O                        aug-cc-pvdz                9       23   4s3p2d
 H                        aug-cc-pvdz                5        9   3s2p




 Summary of "ao basis" -> "cc-pvdz" (spherical)
 ------------------------------------------------------------------------------
       Tag                 Description            Shells   Functions and Types
 ---------------- ------------------------------  ------  ---------------------
 O                        aug-cc-pvdz                9       23   4s3p2d
 H                        aug-cc-pvdz                5        9   3s2p


      Symmetry analysis of basis
      --------------------------

        a1         14
        a2          0
        b1          2
        b2          2
        e          14

  texas integral default override: limxmem =             50000000
  Caching 1-el integrals 

            General Information
            -------------------
          SCF calculation type: DFT
          Wavefunction type:  closed shell.
          No. of atoms     :     2
          No. of electrons :    10
           Alpha electrons :     5
            Beta electrons :     5
          Charge           :    -1
          Spin multiplicity:     1
          Use of symmetry is: on ; symmetry adaption is: on 
          Maximum number of iterations: 500
          This is a Direct SCF calculation.
          AO basis - number of functions:    32
                     number of shells:    14
          Convergence on energy requested:  1.00D-06
          Convergence on density requested:  1.00D-05
          Convergence on gradient requested:  5.00D-04

              XC Information
              --------------
          PerdewBurkeErnzerhof Exchange Functional  1.000          
            Perdew 1991 LDA Correlation Functional  1.000 local    
           PerdewBurkeErnz. Correlation Functional  1.000 non-local

             Grid Information
             ----------------
          Grid used for XC integration:  medium    
          Radial quadrature: Mura-Knowles        
          Angular quadrature: Lebedev. 
          Tag              B.-S. Rad. Rad. Pts. Rad. Cut. Ang. Pts.
          ---              ---------- --------- --------- ---------
          O                   0.60       49           9.0       434
          H                   0.35       45           9.0       434
          Grid pruning is: on 
          Number of quadrature shells:    94
          Spatial weights used:  Erf1

          Convergence Information
          -----------------------
          Convergence aids based upon iterative change in 
          total energy or number of iterations. 
          Levelshifting, if invoked, occurs when the 
          HOMO/LUMO gap drops below (HL_TOL):  1.00D-02
          DIIS, if invoked, will attempt to extrapolate 
          using up to (NFOCK): 10 stored Fock matrices.

                    Damping( 0%)  Levelshifting(0.5)       DIIS
                  --------------- ------------------- ---------------
          dE  on:    start            ASAP                start   
          dE off:    2 iters        500 iters           500 iters 


      Screening Tolerance Information
      -------------------------------
          Density screening/tol_rho:  1.00D-10
          AO Gaussian exp screening on grid/accAOfunc:  14
          CD Gaussian exp screening on grid/accCDfunc:  20
          XC Gaussian exp screening on grid/accXCfunc:  20
          Schwarz screening/accCoul:  1.00D-08


      Superposition of Atomic Density Guess
      -------------------------------------

 Sum of atomic energies:         -75.26614932

 Renormalizing density from       9.00 to     10

      Non-variational initial energy
      ------------------------------

 Total energy =     -79.872715
 1-e energy   =    -124.395911
 2-e energy   =      40.164875
 HOMO         =       0.197459
 LUMO         =       0.204617


      Symmetry analysis of molecular orbitals - initial
      -------------------------------------------------


 !! scf_movecs_sym_adapt:    4 vectors were symmetry contaminated

  Symmetry fudging

 !! scf_movecs_sym_adapt:    4 vectors were symmetry contaminated

  Numbering of irreducible representations: 

     1 a1          2 a2          3 b1          4 b2          5 e       

  Orbital symmetries:

     1 a1          2 a1          3 a1          4 e           5 e       
     6 a1          7 a1          8 e           9 e          10 a1      
    11 a1         12 e          13 e          14 a1         15 a1      

   Time after variat. SCF:      0.4
   Time prior to 1st pass:      0.4

 Grid_pts file          = ./oh-dat.gridpts.00
 Record size in doubles =  12289        No. of grid_pts per rec  =   3070
 Max. records in memory =      2        Max. recs in file   =   4694736


           Memory utilization after 1st SCF pass: 
           Heap Space remaining (MW):       13.08            13080738
          Stack Space remaining (MW):       65.54            65535700

   convergence    iter        energy       DeltaE   RMS-Dens  Diis-err    time
 ---------------- ----- ----------------- --------- --------- ---------  ------
 d= 0,ls=0.0,diis     1    -75.3590291361 -7.97D+01  6.47D-02  3.81D+00     0.5
 d= 0,ls=0.0,diis     2    -74.5107955631  8.48D-01  4.27D-02  1.17D+01     0.6
 d= 0,ls=0.0,diis     3    -75.7287405000 -1.22D+00  8.23D-03  3.83D-02     0.6
 d= 0,ls=0.0,diis     4    -75.7338382394 -5.10D-03  1.85D-03  1.24D-02     0.7
 d= 0,ls=0.0,diis     5    -75.7352044850 -1.37D-03  4.95D-04  9.01D-04     0.7
  Resetting Diis
 d= 0,ls=0.0,diis     6    -75.7353019532 -9.75D-05  5.58D-05  5.21D-06     0.7
 d= 0,ls=0.0,diis     7    -75.7353025585 -6.05D-07  5.04D-05  7.11D-07     0.8
 d= 0,ls=0.0,diis     8    -75.7353018400  7.18D-07  3.82D-05  7.58D-06     0.8
 d= 0,ls=0.0,diis     9    -75.7353026344 -7.94D-07  4.12D-07  3.99D-10     0.9


         Total DFT energy =      -75.735302634421
      One electron energy =     -116.099044320810
           Coulomb energy =       45.024407030209
    Exchange-Corr. energy =       -9.018985441220
 Nuclear repulsion energy =        4.358320097400

 Numeric. integr. density =       10.000000600515

     Total iterative time =      0.5s



                  Occupations of the irreducible representations
                  ----------------------------------------------

                     irrep           alpha         beta
                     --------     --------     --------
                     a1                3.0          3.0
                     a2                0.0          0.0
                     b1                0.0          0.0
                     b2                0.0          0.0
                     e                 2.0          2.0


                       DFT Final Molecular Orbital Analysis
                       ------------------------------------

 Vector    1  Occ=2.000000D+00  E=-1.842360D+01  Symmetry=a1
              MO Center=  3.7D-23,  5.4D-23,  1.1D-01, r^2= 1.5D-02
   Bfn.  Coefficient  Atom+Function         Bfn.  Coefficient  Atom+Function  
  ----- ------------  ---------------      ----- ------------  ---------------
     1      1.004645  1 O  s          

 Vector    2  Occ=2.000000D+00  E=-5.175013D-01  Symmetry=a1
              MO Center= -1.8D-16,  1.9D-16, -1.2D-01, r^2= 5.0D-01
   Bfn.  Coefficient  Atom+Function         Bfn.  Coefficient  Atom+Function  
  ----- ------------  ---------------      ----- ------------  ---------------
     2      0.452938  1 O  s                  3      0.412517  1 O  s          
    24      0.264728  2 H  s                  7     -0.115462  1 O  pz         
     4      0.053657  1 O  s                 29      0.042133  2 H  pz         

 Vector    3  Occ=2.000000D+00  E=-5.088272D-02  Symmetry=a1
              MO Center= -1.3D-16, -2.1D-16,  2.3D-02, r^2= 9.5D-01
   Bfn.  Coefficient  Atom+Function         Bfn.  Coefficient  Atom+Function  
  ----- ------------  ---------------      ----- ------------  ---------------
     7      0.494612  1 O  pz                24     -0.393944  2 H  s          
     3      0.316552  1 O  s                 10      0.211331  1 O  pz         
    25     -0.177562  2 H  s                  4      0.166418  1 O  s          
     2      0.163914  1 O  s                 13      0.084615  1 O  pz         
    26     -0.037594  2 H  s                 29     -0.025319  2 H  pz         

 Vector    4  Occ=2.000000D+00  E= 8.417309D-02  Symmetry=e
              MO Center=  1.4D-15,  1.3D-16,  6.4D-02, r^2= 1.1D+00
   Bfn.  Coefficient  Atom+Function         Bfn.  Coefficient  Atom+Function  
  ----- ------------  ---------------      ----- ------------  ---------------
     5      0.582400  1 O  px                 8      0.373617  1 O  px         
    11      0.251157  1 O  px                 6      0.113621  1 O  py         
     9      0.072889  1 O  py                12      0.048998  1 O  py         
    30      0.034287  2 H  px                27      0.029095  2 H  px         

 Vector    5  Occ=2.000000D+00  E= 8.417309D-02  Symmetry=e
              MO Center= -8.2D-17, -3.3D-16,  6.4D-02, r^2= 1.1D+00
   Bfn.  Coefficient  Atom+Function         Bfn.  Coefficient  Atom+Function  
  ----- ------------  ---------------      ----- ------------  ---------------
     6      0.582400  1 O  py                 9      0.373617  1 O  py         
    12      0.251157  1 O  py                 5     -0.113621  1 O  px         
     8     -0.072889  1 O  px                11     -0.048998  1 O  px         
    31      0.034287  2 H  py                28      0.029095  2 H  py         

 Vector    6  Occ=0.000000D+00  E= 1.460894D-01  Symmetry=a1
              MO Center= -5.4D-16,  5.6D-16, -1.3D+00, r^2= 1.1D+01
   Bfn.  Coefficient  Atom+Function         Bfn.  Coefficient  Atom+Function  
  ----- ------------  ---------------      ----- ------------  ---------------
    26     -1.673568  2 H  s                  4      1.535440  1 O  s          
    25     -0.831432  2 H  s                 13     -0.420572  1 O  pz         
    32     -0.249939  2 H  pz                 3      0.166604  1 O  s          
    10     -0.164226  1 O  pz                 7     -0.076374  1 O  pz         
     2      0.049952  1 O  s          

 Vector    7  Occ=0.000000D+00  E= 2.954756D-01  Symmetry=a1
              MO Center= -1.5D-16,  8.3D-16,  2.8D-01, r^2= 7.5D+00
   Bfn.  Coefficient  Atom+Function         Bfn.  Coefficient  Atom+Function  
  ----- ------------  ---------------      ----- ------------  ---------------
     4      3.036999  1 O  s                 25     -2.471724  2 H  s          
    13     -1.900566  1 O  pz                26     -1.077005  2 H  s          
    32     -0.761417  2 H  pz                 3      0.408746  1 O  s          
     7      0.257364  1 O  pz                 2     -0.072438  1 O  s          
    21      0.071520  1 O  d  0              29     -0.058880  2 H  pz         

 Vector    8  Occ=0.000000D+00  E= 3.218344D-01  Symmetry=e
              MO Center=  5.7D-17, -5.9D-16,  3.3D-01, r^2= 5.7D+00
   Bfn.  Coefficient  Atom+Function         Bfn.  Coefficient  Atom+Function  
  ----- ------------  ---------------      ----- ------------  ---------------
    12      1.262476  1 O  py                 9     -0.365173  1 O  py         
    31     -0.313163  2 H  py                 6     -0.288949  1 O  py         
    11     -0.154042  1 O  px                20     -0.046327  1 O  d -1       
     8      0.044557  1 O  px                30      0.038211  2 H  px         
     5      0.035256  1 O  px         

 Vector    9  Occ=0.000000D+00  E= 3.218344D-01  Symmetry=e
              MO Center=  7.5D-15,  9.0D-16,  3.3D-01, r^2= 5.7D+00
   Bfn.  Coefficient  Atom+Function         Bfn.  Coefficient  Atom+Function  
  ----- ------------  ---------------      ----- ------------  ---------------
    11      1.262476  1 O  px                 8     -0.365173  1 O  px         
    30     -0.313163  2 H  px                 5     -0.288949  1 O  px         
    12      0.154042  1 O  py                22      0.046327  1 O  d  1       
     9     -0.044557  1 O  py                31     -0.038211  2 H  py         
     6     -0.035256  1 O  py         

 Vector   10  Occ=0.000000D+00  E= 3.394948D-01  Symmetry=a1
              MO Center= -8.7D-15,  4.4D-16, -1.2D-01, r^2= 6.5D+00
   Bfn.  Coefficient  Atom+Function         Bfn.  Coefficient  Atom+Function  
  ----- ------------  ---------------      ----- ------------  ---------------
     4      2.321021  1 O  s                 26     -1.098526  2 H  s          
    32     -0.896686  2 H  pz                25     -0.480389  2 H  s          
    13      0.357422  1 O  pz                 3     -0.243219  1 O  s          
    10     -0.179948  1 O  pz                 2     -0.173611  1 O  s          
     7      0.108202  1 O  pz                24      0.098631  2 H  s          

 Vector   11  Occ=0.000000D+00  E= 4.331559D-01  Symmetry=a1
              MO Center=  1.0D-16, -2.2D-15, -3.0D-01, r^2= 4.7D+00
   Bfn.  Coefficient  Atom+Function         Bfn.  Coefficient  Atom+Function  
  ----- ------------  ---------------      ----- ------------  ---------------
     4      4.194991  1 O  s                 25     -3.795727  2 H  s          
    13     -1.598807  1 O  pz                26     -0.736464  2 H  s          
    10     -0.653488  1 O  pz                 7     -0.233570  1 O  pz         
    24     -0.214524  2 H  s                  3     -0.126833  1 O  s          
    21      0.091783  1 O  d  0              29     -0.048510  2 H  pz         

 Vector   12  Occ=0.000000D+00  E= 5.128815D-01  Symmetry=e
              MO Center=  3.3D-16,  2.4D-16, -9.0D-01, r^2= 3.3D+00
   Bfn.  Coefficient  Atom+Function         Bfn.  Coefficient  Atom+Function  
  ----- ------------  ---------------      ----- ------------  ---------------
    30      1.308819  2 H  px                31      0.954314  2 H  py         
    11     -0.619850  1 O  px                12     -0.451959  1 O  py         
     8     -0.370547  1 O  px                 9     -0.270181  1 O  py         
     5     -0.116076  1 O  px                 6     -0.084636  1 O  py         
    22     -0.082593  1 O  d  1              20      0.060222  1 O  d -1       

 Vector   13  Occ=0.000000D+00  E= 5.128815D-01  Symmetry=e
              MO Center=  1.7D-16, -2.3D-16, -9.0D-01, r^2= 3.3D+00
   Bfn.  Coefficient  Atom+Function         Bfn.  Coefficient  Atom+Function  
  ----- ------------  ---------------      ----- ------------  ---------------
    31      1.308819  2 H  py                30     -0.954314  2 H  px         
    12     -0.619850  1 O  py                11      0.451959  1 O  px         
     9     -0.370547  1 O  py                 8      0.270181  1 O  px         
     6     -0.116076  1 O  py                 5      0.084636  1 O  px         
    20      0.082593  1 O  d -1              22      0.060222  1 O  d  1       

 Vector   14  Occ=0.000000D+00  E= 7.227638D-01  Symmetry=a1
              MO Center= -1.3D-16, -1.1D-16, -9.8D-01, r^2= 3.7D+00
   Bfn.  Coefficient  Atom+Function         Bfn.  Coefficient  Atom+Function  
  ----- ------------  ---------------      ----- ------------  ---------------
    25      5.686611  2 H  s                  4     -4.931382  1 O  s          
    32      2.850503  2 H  pz                 3     -2.182488  1 O  s          
    13      1.133103  1 O  pz                26      0.972138  2 H  s          
    10      0.847822  1 O  pz                 7      0.320326  1 O  pz         
    24      0.296736  2 H  s                  1      0.073445  1 O  s          

 Vector   15  Occ=0.000000D+00  E= 9.204998D-01  Symmetry=a1
              MO Center=  1.2D-16,  3.8D-17, -3.1D-01, r^2= 2.9D+00
   Bfn.  Coefficient  Atom+Function         Bfn.  Coefficient  Atom+Function  
  ----- ------------  ---------------      ----- ------------  ---------------
    25      5.343283  2 H  s                  4     -3.927472  1 O  s          
    13      1.630204  1 O  pz                 3     -1.046673  1 O  s          
    32      0.860170  2 H  pz                24     -0.762389  2 H  s          
    21     -0.613592  1 O  d  0              10      0.502601  1 O  pz         
    26      0.401056  2 H  s                 29      0.271322  2 H  pz         

 Vector   16  Occ=0.000000D+00  E= 1.072334D+00  Symmetry=b1
              MO Center= -7.5D-16,  6.5D-17,  1.1D-01, r^2= 1.5D+00
   Bfn.  Coefficient  Atom+Function         Bfn.  Coefficient  Atom+Function  
  ----- ------------  ---------------      ----- ------------  ---------------
    23      1.012225  1 O  d  2       

 Vector   17  Occ=0.000000D+00  E= 1.072336D+00  Symmetry=b2
              MO Center= -1.3D-16, -2.3D-16,  1.1D-01, r^2= 1.5D+00
   Bfn.  Coefficient  Atom+Function         Bfn.  Coefficient  Atom+Function  
  ----- ------------  ---------------      ----- ------------  ---------------
    19      1.012224  1 O  d -2       

 Vector   18  Occ=0.000000D+00  E= 1.192144D+00  Symmetry=e
              MO Center=  1.3D-16,  1.6D-16,  3.0D-01, r^2= 2.0D+00
   Bfn.  Coefficient  Atom+Function         Bfn.  Coefficient  Atom+Function  
  ----- ------------  ---------------      ----- ------------  ---------------
    20      0.934828  1 O  d -1              31      0.723140  2 H  py         
    22      0.621649  1 O  d  1              12     -0.497017  1 O  py         
    30     -0.480879  2 H  px                11      0.330510  1 O  px         
     6     -0.200440  1 O  py                 5      0.133290  1 O  px         
     9      0.103733  1 O  py                 8     -0.068981  1 O  px         

 Vector   19  Occ=0.000000D+00  E= 1.192144D+00  Symmetry=e
              MO Center=  2.7D-16, -4.2D-16,  3.0D-01, r^2= 2.0D+00
   Bfn.  Coefficient  Atom+Function         Bfn.  Coefficient  Atom+Function  
  ----- ------------  ---------------      ----- ------------  ---------------
    22      0.934828  1 O  d  1              30     -0.723140  2 H  px         
    20     -0.621649  1 O  d -1              11      0.497017  1 O  px         
    31     -0.480879  2 H  py                12      0.330510  1 O  py         
     5      0.200440  1 O  px                 6      0.133290  1 O  py         
     8     -0.103733  1 O  px                 9     -0.068981  1 O  py         

 Vector   20  Occ=0.000000D+00  E= 1.342940D+00  Symmetry=a1
              MO Center=  1.3D-16,  6.9D-18,  4.9D-01, r^2= 1.8D+00
   Bfn.  Coefficient  Atom+Function         Bfn.  Coefficient  Atom+Function  
  ----- ------------  ---------------      ----- ------------  ---------------
    25      3.991996  2 H  s                  4     -3.052200  1 O  s          
    10      1.604588  1 O  pz                32      1.362796  2 H  pz         
     3     -1.207588  1 O  s                  7     -0.691950  1 O  pz         
    21      0.548089  1 O  d  0              13      0.472468  1 O  pz         
    29      0.417915  2 H  pz                26      0.400505  2 H  s          

 Vector   21  Occ=0.000000D+00  E= 1.397231D+00  Symmetry=e
              MO Center=  1.6D-16,  2.7D-16, -2.3D-01, r^2= 1.5D+00
   Bfn.  Coefficient  Atom+Function         Bfn.  Coefficient  Atom+Function  
  ----- ------------  ---------------      ----- ------------  ---------------
     9      1.375423  1 O  py                 6     -0.916068  1 O  py         
    31     -0.618201  2 H  py                 8      0.394418  1 O  px         
    20     -0.388448  1 O  d -1               5     -0.262692  1 O  px         
    30     -0.177276  2 H  px                12     -0.139319  1 O  py         
    22      0.111392  1 O  d  1              11     -0.039951  1 O  px         

 Vector   22  Occ=0.000000D+00  E= 1.397231D+00  Symmetry=e
              MO Center=  9.1D-17,  1.9D-16, -2.3D-01, r^2= 1.5D+00
   Bfn.  Coefficient  Atom+Function         Bfn.  Coefficient  Atom+Function  
  ----- ------------  ---------------      ----- ------------  ---------------
     8      1.375423  1 O  px                 5     -0.916068  1 O  px         
    30     -0.618201  2 H  px                 9     -0.394418  1 O  py         
    22      0.388448  1 O  d  1               6      0.262692  1 O  py         
    31      0.177276  2 H  py                11     -0.139319  1 O  px         
    20      0.111392  1 O  d -1              12      0.039951  1 O  py         

 Vector   23  Occ=0.000000D+00  E= 1.690713D+00  Symmetry=a1
              MO Center=  1.4D-16,  2.1D-16, -3.1D-02, r^2= 1.7D+00
   Bfn.  Coefficient  Atom+Function         Bfn.  Coefficient  Atom+Function  
  ----- ------------  ---------------      ----- ------------  ---------------
    24      1.486945  2 H  s                 10      1.255972  1 O  pz         
     3      1.137865  1 O  s                 21     -1.115050  1 O  d  0       
     2     -0.855201  1 O  s                  4     -0.661547  1 O  s          
    25     -0.541728  2 H  s                  7     -0.422778  1 O  pz         
    32     -0.406840  2 H  pz                 1     -0.339653  1 O  s          

 Vector   24  Occ=0.000000D+00  E= 2.042623D+00  Symmetry=e
              MO Center=  7.7D-17, -3.4D-17, -6.4D-01, r^2= 1.1D+00
   Bfn.  Coefficient  Atom+Function         Bfn.  Coefficient  Atom+Function  
  ----- ------------  ---------------      ----- ------------  ---------------
    27      1.299193  2 H  px                22     -0.755945  1 O  d  1       
     8     -0.510330  1 O  px                28      0.402087  2 H  py         
    20      0.233957  1 O  d -1               9     -0.157942  1 O  py         
    30     -0.124966  2 H  px                11      0.118796  1 O  px         
    17      0.063025  1 O  d  1              31     -0.038676  2 H  py         

 Vector   25  Occ=0.000000D+00  E= 2.042623D+00  Symmetry=e
              MO Center=  5.8D-17, -1.9D-17, -6.4D-01, r^2= 1.1D+00
   Bfn.  Coefficient  Atom+Function         Bfn.  Coefficient  Atom+Function  
  ----- ------------  ---------------      ----- ------------  ---------------
    28      1.299193  2 H  py                20      0.755945  1 O  d -1       
     9     -0.510330  1 O  py                27     -0.402087  2 H  px         
    22      0.233957  1 O  d  1               8      0.157942  1 O  px         
    31     -0.124966  2 H  py                12      0.118796  1 O  py         
    15     -0.063025  1 O  d -1              30      0.038676  2 H  px         

 Vector   26  Occ=0.000000D+00  E= 2.449212D+00  Symmetry=a1
              MO Center=  1.5D-17,  1.9D-18, -7.1D-01, r^2= 9.2D-01
   Bfn.  Coefficient  Atom+Function         Bfn.  Coefficient  Atom+Function  
  ----- ------------  ---------------      ----- ------------  ---------------
     3      1.885603  1 O  s                 25     -1.884984  2 H  s          
     2     -1.384156  1 O  s                  4      1.267368  1 O  s          
    32     -1.215686  2 H  pz                29      1.037982  2 H  pz         
     7      0.686611  1 O  pz                 1     -0.613496  1 O  s          
    10     -0.591891  1 O  pz                26     -0.251481  2 H  s          

 Vector   27  Occ=0.000000D+00  E= 2.738673D+00  Symmetry=a1
              MO Center=  3.5D-17,  5.7D-17, -2.6D-01, r^2= 1.6D+00
   Bfn.  Coefficient  Atom+Function         Bfn.  Coefficient  Atom+Function  
  ----- ------------  ---------------      ----- ------------  ---------------
    25     -5.130619  2 H  s                  3      4.709366  1 O  s          
     4      3.501468  1 O  s                 10     -2.744623  1 O  pz         
    24     -2.459033  2 H  s                 32     -1.508818  2 H  pz         
     2     -1.421474  1 O  s                 21      1.389989  1 O  d  0       
    13     -1.073250  1 O  pz                29     -1.073705  2 H  pz         

 Vector   28  Occ=0.000000D+00  E= 3.451901D+00  Symmetry=b1
              MO Center= -1.5D-17, -9.1D-19,  1.1D-01, r^2= 6.1D-01
   Bfn.  Coefficient  Atom+Function         Bfn.  Coefficient  Atom+Function  
  ----- ------------  ---------------      ----- ------------  ---------------
    18      1.165720  1 O  d  2              23     -0.578696  1 O  d  2       

 Vector   29  Occ=0.000000D+00  E= 3.451902D+00  Symmetry=b2
              MO Center=  5.5D-17,  4.9D-17,  1.1D-01, r^2= 6.1D-01
   Bfn.  Coefficient  Atom+Function         Bfn.  Coefficient  Atom+Function  
  ----- ------------  ---------------      ----- ------------  ---------------
    14      1.165720  1 O  d -2              19     -0.578696  1 O  d -2       

 Vector   30  Occ=0.000000D+00  E= 3.552067D+00  Symmetry=e
              MO Center= -7.7D-19,  1.1D-17,  9.0D-02, r^2= 7.4D-01
   Bfn.  Coefficient  Atom+Function         Bfn.  Coefficient  Atom+Function  
  ----- ------------  ---------------      ----- ------------  ---------------
    15      1.082058  1 O  d -1              20     -0.629103  1 O  d -1       
    17      0.517456  1 O  d  1              31     -0.403173  2 H  py         
    22     -0.300846  1 O  d  1              12      0.207536  1 O  py         
    30      0.192803  2 H  px                28      0.140670  2 H  py         
     9      0.107198  1 O  py                11     -0.099247  1 O  px         

 Vector   31  Occ=0.000000D+00  E= 3.552067D+00  Symmetry=e
              MO Center=  6.2D-17,  2.9D-17,  9.0D-02, r^2= 7.4D-01
   Bfn.  Coefficient  Atom+Function         Bfn.  Coefficient  Atom+Function  
  ----- ------------  ---------------      ----- ------------  ---------------
    17      1.082058  1 O  d  1              22     -0.629103  1 O  d  1       
    15     -0.517456  1 O  d -1              30      0.403173  2 H  px         
    20      0.300846  1 O  d -1              11     -0.207536  1 O  px         
    31      0.192803  2 H  py                27     -0.140670  2 H  px         
     8     -0.107198  1 O  px                12     -0.099247  1 O  py         

 Vector   32  Occ=0.000000D+00  E= 3.980584D+00  Symmetry=a1
              MO Center= -2.7D-18, -5.3D-18, -3.0D-03, r^2= 8.4D-01
   Bfn.  Coefficient  Atom+Function         Bfn.  Coefficient  Atom+Function  
  ----- ------------  ---------------      ----- ------------  ---------------
     3      2.753608  1 O  s                 25     -2.259939  2 H  s          
    24     -1.775885  2 H  s                 10     -1.659346  1 O  pz         
     4      1.422192  1 O  s                 16      1.273506  1 O  d  0       
    29     -1.185387  2 H  pz                32     -0.837518  2 H  pz         
     2     -0.505409  1 O  s                  7     -0.313482  1 O  pz         


 center of mass
 --------------
 x =   0.00000000 y =   0.00000000 z =   0.09515010

 moments of inertia (a.u.)
 ------------------
           3.194404199078           0.000000000000           0.000000000000
           0.000000000000           3.194404199078           0.000000000000
           0.000000000000           0.000000000000           0.000000000000

     Multipole analysis of the density
     ---------------------------------

     L   x y z        total         alpha         beta         nuclear
     -   - - -        -----         -----         ----         -------
     0   0 0 0     -1.000000     -5.000000     -5.000000      9.000000

     1   1 0 0     -0.000000     -0.000000     -0.000000      0.000000
     1   0 1 0     -0.000000     -0.000000     -0.000000      0.000000
     1   0 0 1     -0.538625     -0.269313     -0.269313      0.000000

     2   2 0 0     -8.265217     -4.132609     -4.132609      0.000000
     2   1 1 0     -0.000000     -0.000000     -0.000000      0.000000
     2   1 0 1     -0.000000     -0.000000     -0.000000      0.000000
     2   0 2 0     -8.265217     -4.132609     -4.132609      0.000000
     2   0 1 1     -0.000000     -0.000000     -0.000000      0.000000
     2   0 0 2     -6.428014     -4.711481     -4.711481      2.994947


            General Information
            -------------------
          SCF calculation type: DFT
          Wavefunction type:  closed shell.
          No. of atoms     :     2
          No. of electrons :    10
           Alpha electrons :     5
            Beta electrons :     5
          Charge           :    -1
          Spin multiplicity:     1
          Use of symmetry is: on ; symmetry adaption is: on 
          Maximum number of iterations: 500
          This is a Direct SCF calculation.
          AO basis - number of functions:    32
                     number of shells:    14
          Convergence on energy requested:  1.00D-06
          Convergence on density requested:  1.00D-05
          Convergence on gradient requested:  5.00D-04

              XC Information
              --------------
          PerdewBurkeErnzerhof Exchange Functional  1.000          
            Perdew 1991 LDA Correlation Functional  1.000 local    
           PerdewBurkeErnz. Correlation Functional  1.000 non-local

             Grid Information
             ----------------
          Grid used for XC integration:  medium    
          Radial quadrature: Mura-Knowles        
          Angular quadrature: Lebedev. 
          Tag              B.-S. Rad. Rad. Pts. Rad. Cut. Ang. Pts.
          ---              ---------- --------- --------- ---------
          O                   0.60       49           9.0       434
          H                   0.35       45           9.0       434
          Grid pruning is: on 
          Number of quadrature shells:    94
          Spatial weights used:  Erf1

          Convergence Information
          -----------------------
          Convergence aids based upon iterative change in 
          total energy or number of iterations. 
          Levelshifting, if invoked, occurs when the 
          HOMO/LUMO gap drops below (HL_TOL):  1.00D-02
          DIIS, if invoked, will attempt to extrapolate 
          using up to (NFOCK): 10 stored Fock matrices.

                    Damping( 0%)  Levelshifting(0.5)       DIIS
                  --------------- ------------------- ---------------
          dE  on:    start            ASAP                start   
          dE off:    2 iters        500 iters           500 iters 


      Screening Tolerance Information
      -------------------------------
          Density screening/tol_rho:  1.00D-10
          AO Gaussian exp screening on grid/accAOfunc:  14
          CD Gaussian exp screening on grid/accCDfunc:  20
          XC Gaussian exp screening on grid/accXCfunc:  20
          Schwarz screening/accCoul:  1.00D-08

  texas integral default override: limxmem =             50000000
  texas integral default override: limxmem =             50000000


                            NWChem DFT Gradient Module
                            --------------------------



  charge          =  -1.00
  wavefunction    = closed shell

  Using symmetry
  texas integral default override: limxmem =             50000000
  texas integral default override: limxmem =             50000000


                         DFT ENERGY GRADIENTS

    atom               coordinates                        gradient
                 x          y          z           x          y          z
   1 O       0.000000   0.000000   0.203952    0.000000   0.000000  -0.006851
   2 H       0.000000   0.000000  -1.631617    0.000000   0.000000   0.006851

                 ----------------------------------------
                 |  Time  |  1-e(secs)   |  2-e(secs)   |
                 ----------------------------------------
                 |  CPU   |       0.00   |       0.05   |
                 ----------------------------------------
                 |  WALL  |       0.00   |       0.06   |
                 ----------------------------------------
  no constraints, skipping    0.0000000000000000     

@ Step       Energy      Delta E   Gmax     Grms     Xrms     Xmax   Walltime
@ ---- ---------------- -------- -------- -------- -------- -------- --------
@    0     -75.73530263  0.0D+00  0.00685  0.00685  0.00000  0.00000      1.1
                                                                    



                                Z-matrix (autoz)
                                -------- 

 Units are Angstrom for bonds and degrees for angles

      Type          Name      I     J     K     L     M      Value     Gradient
      ----------- --------  ----- ----- ----- ----- ----- ---------- ----------
    1 Stretch                  1     2                       0.97134   -0.00685

  no constraints, skipping    0.0000000000000000     
  no constraints, skipping    0.0000000000000000     
  no constraints, skipping    0.0000000000000000     

                                 NWChem DFT Module
                                 -----------------




 Summary of "ao basis" -> "cc-pvdz" (spherical)
 ------------------------------------------------------------------------------
       Tag                 Description            Shells   Functions and Types
 ---------------- ------------------------------  ------  ---------------------
 O                        aug-cc-pvdz                9       23   4s3p2d
 H                        aug-cc-pvdz                5        9   3s2p


      Symmetry analysis of basis
      --------------------------

        a1         14
        a2          0
        b1          2
        b2          2
        e          14

  texas integral default override: limxmem =             50000000
  Caching 1-el integrals 

            General Information
            -------------------
          SCF calculation type: DFT
          Wavefunction type:  closed shell.
          No. of atoms     :     2
          No. of electrons :    10
           Alpha electrons :     5
            Beta electrons :     5
          Charge           :    -1
          Spin multiplicity:     1
          Use of symmetry is: on ; symmetry adaption is: on 
          Maximum number of iterations: 500
          This is a Direct SCF calculation.
          AO basis - number of functions:    32
                     number of shells:    14
          Convergence on energy requested:  1.00D-06
          Convergence on density requested:  1.00D-05
          Convergence on gradient requested:  5.00D-04

              XC Information
              --------------
          PerdewBurkeErnzerhof Exchange Functional  1.000          
            Perdew 1991 LDA Correlation Functional  1.000 local    
           PerdewBurkeErnz. Correlation Functional  1.000 non-local

             Grid Information
             ----------------
          Grid used for XC integration:  medium    
          Radial quadrature: Mura-Knowles        
          Angular quadrature: Lebedev. 
          Tag              B.-S. Rad. Rad. Pts. Rad. Cut. Ang. Pts.
          ---              ---------- --------- --------- ---------
          O                   0.60       49           9.0       434
          H                   0.35       45           9.0       434
          Grid pruning is: on 
          Number of quadrature shells:    94
          Spatial weights used:  Erf1

          Convergence Information
          -----------------------
          Convergence aids based upon iterative change in 
          total energy or number of iterations. 
          Levelshifting, if invoked, occurs when the 
          HOMO/LUMO gap drops below (HL_TOL):  1.00D-02
          DIIS, if invoked, will attempt to extrapolate 
          using up to (NFOCK): 10 stored Fock matrices.

                    Damping( 0%)  Levelshifting(0.5)       DIIS
                  --------------- ------------------- ---------------
          dE  on:    start            ASAP                start   
          dE off:    2 iters        500 iters           500 iters 


      Screening Tolerance Information
      -------------------------------
          Density screening/tol_rho:  1.00D-10
          AO Gaussian exp screening on grid/accAOfunc:  14
          CD Gaussian exp screening on grid/accCDfunc:  20
          XC Gaussian exp screening on grid/accXCfunc:  20
          Schwarz screening/accCoul:  1.00D-08


 Loading old vectors from job with title :




      Symmetry analysis of molecular orbitals - initial
      -------------------------------------------------

  Numbering of irreducible representations: 

     1 a1          2 a2          3 b1          4 b2          5 e       

  Orbital symmetries:

     1 a1          2 a1          3 a1          4 e           5 e       
     6 a1          7 a1          8 e           9 e          10 a1      
    11 a1         12 e          13 e          14 a1         15 a1      

   Time after variat. SCF:      1.2
   Time prior to 1st pass:      1.2

 Grid_pts file          = ./oh-dat.gridpts.00
 Record size in doubles =  12289        No. of grid_pts per rec  =   3070
 Max. records in memory =      2        Max. recs in file   =   4694736


           Memory utilization after 1st SCF pass: 
           Heap Space remaining (MW):       13.08            13080738
          Stack Space remaining (MW):       65.54            65535700

   convergence    iter        energy       DeltaE   RMS-Dens  Diis-err    time
 ---------------- ----- ----------------- --------- --------- ---------  ------
 d= 0,ls=0.0,diis     1    -75.7353080652 -8.00D+01  6.05D-04  2.96D-04     1.3
 d= 0,ls=0.0,diis     2    -75.7353351542 -2.71D-05  3.82D-04  7.75D-05     1.3
 d= 0,ls=0.0,diis     3    -75.7353104321  2.47D-05  2.53D-04  3.16D-04     1.4
 d= 0,ls=0.0,diis     4    -75.7353435409 -3.31D-05  2.28D-05  1.01D-06     1.4
 d= 0,ls=0.0,diis     5    -75.7353436612 -1.20D-07  3.06D-06  1.42D-08     1.4


         Total DFT energy =      -75.735343661199
      One electron energy =     -116.012993842078
           Coulomb energy =       44.979092387211
    Exchange-Corr. energy =       -9.014065344435
 Nuclear repulsion energy =        4.312623138103

 Numeric. integr. density =       10.000000244669

     Total iterative time =      0.3s



                  Occupations of the irreducible representations
                  ----------------------------------------------

                     irrep           alpha         beta
                     --------     --------     --------
                     a1                3.0          3.0
                     a2                0.0          0.0
                     b1                0.0          0.0
                     b2                0.0          0.0
                     e                 2.0          2.0


                       DFT Final Molecular Orbital Analysis
                       ------------------------------------

 Vector    1  Occ=2.000000D+00  E=-1.842499D+01  Symmetry=a1
              MO Center=  3.3D-23,  3.7D-23,  1.1D-01, r^2= 1.5D-02
   Bfn.  Coefficient  Atom+Function         Bfn.  Coefficient  Atom+Function  
  ----- ------------  ---------------      ----- ------------  ---------------
     1      1.004630  1 O  s          

 Vector    2  Occ=2.000000D+00  E=-5.153082D-01  Symmetry=a1
              MO Center= -8.2D-17, -1.5D-16, -1.1D-01, r^2= 5.0D-01
   Bfn.  Coefficient  Atom+Function         Bfn.  Coefficient  Atom+Function  
  ----- ------------  ---------------      ----- ------------  ---------------
     2      0.453917  1 O  s                  3      0.418140  1 O  s          
    24      0.258505  2 H  s                  7     -0.113150  1 O  pz         
     4      0.055731  1 O  s                 29      0.041534  2 H  pz         

 Vector    3  Occ=2.000000D+00  E=-5.065021D-02  Symmetry=a1
              MO Center= -6.5D-18, -1.3D-16,  1.7D-02, r^2= 9.6D-01
   Bfn.  Coefficient  Atom+Function         Bfn.  Coefficient  Atom+Function  
  ----- ------------  ---------------      ----- ------------  ---------------
     7      0.493382  1 O  pz                24     -0.393812  2 H  s          
     3      0.312099  1 O  s                 10      0.212549  1 O  pz         
    25     -0.179335  2 H  s                  4      0.164738  1 O  s          
     2      0.162401  1 O  s                 13      0.084750  1 O  pz         
    26     -0.038328  2 H  s                 29     -0.025853  2 H  pz         

 Vector    4  Occ=2.000000D+00  E= 8.412253D-02  Symmetry=e
              MO Center= -3.8D-16,  2.0D-17,  7.0D-02, r^2= 1.1D+00
   Bfn.  Coefficient  Atom+Function         Bfn.  Coefficient  Atom+Function  
  ----- ------------  ---------------      ----- ------------  ---------------
     5      0.504675  1 O  px                 8      0.323891  1 O  px         
     6     -0.312543  1 O  py                11      0.217627  1 O  px         
     9     -0.200584  1 O  py                12     -0.134776  1 O  py         
    30      0.029579  2 H  px         

 Vector    5  Occ=2.000000D+00  E= 8.412253D-02  Symmetry=e
              MO Center=  3.5D-17, -4.1D-18,  7.0D-02, r^2= 1.1D+00
   Bfn.  Coefficient  Atom+Function         Bfn.  Coefficient  Atom+Function  
  ----- ------------  ---------------      ----- ------------  ---------------
     6      0.504675  1 O  py                 9      0.323891  1 O  py         
     5      0.312543  1 O  px                12      0.217627  1 O  py         
     8      0.200584  1 O  px                11      0.134776  1 O  px         
    31      0.029579  2 H  py         

 Vector    6  Occ=0.000000D+00  E= 1.459247D-01  Symmetry=a1
              MO Center= -3.9D-18,  2.3D-16, -1.3D+00, r^2= 1.1D+01
   Bfn.  Coefficient  Atom+Function         Bfn.  Coefficient  Atom+Function  
  ----- ------------  ---------------      ----- ------------  ---------------
    26     -1.666801  2 H  s                  4      1.515467  1 O  s          
    25     -0.815164  2 H  s                 13     -0.420435  1 O  pz         
    32     -0.246775  2 H  pz                10     -0.165359  1 O  pz         
     3      0.161729  1 O  s                  7     -0.079161  1 O  pz         
     2      0.050523  1 O  s          

 Vector    7  Occ=0.000000D+00  E= 2.954393D-01  Symmetry=a1
              MO Center=  4.0D-16, -3.1D-16,  2.7D-01, r^2= 7.5D+00
   Bfn.  Coefficient  Atom+Function         Bfn.  Coefficient  Atom+Function  
  ----- ------------  ---------------      ----- ------------  ---------------
     4      3.009521  1 O  s                 25     -2.431175  2 H  s          
    13     -1.888025  1 O  pz                26     -1.079776  2 H  s          
    32     -0.773251  2 H  pz                 3      0.399126  1 O  s          
     7      0.263005  1 O  pz                 2     -0.073473  1 O  s          
    21      0.072326  1 O  d  0              29     -0.059132  2 H  pz         

 Vector    8  Occ=0.000000D+00  E= 3.219952D-01  Symmetry=e
              MO Center=  2.8D-15,  1.8D-15,  3.3D-01, r^2= 5.7D+00
   Bfn.  Coefficient  Atom+Function         Bfn.  Coefficient  Atom+Function  
  ----- ------------  ---------------      ----- ------------  ---------------
    11      1.069395  1 O  px                12      0.681727  1 O  py         
     8     -0.312863  1 O  px                30     -0.260143  2 H  px         
     5     -0.245815  1 O  px                 9     -0.199447  1 O  py         
    31     -0.165838  2 H  py                 6     -0.156704  1 O  py         
    22      0.038408  1 O  d  1       

 Vector    9  Occ=0.000000D+00  E= 3.219952D-01  Symmetry=e
              MO Center= -2.1D-15,  3.4D-15,  3.3D-01, r^2= 5.7D+00
   Bfn.  Coefficient  Atom+Function         Bfn.  Coefficient  Atom+Function  
  ----- ------------  ---------------      ----- ------------  ---------------
    12      1.069395  1 O  py                11     -0.681727  1 O  px         
     9     -0.312863  1 O  py                31     -0.260143  2 H  py         
     6     -0.245815  1 O  py                 8      0.199447  1 O  px         
    30      0.165838  2 H  px                 5      0.156704  1 O  px         
    20     -0.038408  1 O  d -1       

 Vector   10  Occ=0.000000D+00  E= 3.381750D-01  Symmetry=a1
              MO Center= -2.5D-15, -1.1D-15, -1.1D-01, r^2= 6.5D+00
   Bfn.  Coefficient  Atom+Function         Bfn.  Coefficient  Atom+Function  
  ----- ------------  ---------------      ----- ------------  ---------------
     4      2.197413  1 O  s                 26     -1.072781  2 H  s          
    32     -0.871276  2 H  pz                13      0.400849  1 O  pz         
    25     -0.364374  2 H  s                  3     -0.260835  1 O  s          
     2     -0.170953  1 O  s                 10     -0.166652  1 O  pz         
     7      0.112736  1 O  pz                24      0.107512  2 H  s          

 Vector   11  Occ=0.000000D+00  E= 4.312094D-01  Symmetry=a1
              MO Center=  1.6D-15, -4.0D-15, -2.8D-01, r^2= 4.7D+00
   Bfn.  Coefficient  Atom+Function         Bfn.  Coefficient  Atom+Function  
  ----- ------------  ---------------      ----- ------------  ---------------
     4      4.218138  1 O  s                 25     -3.782548  2 H  s          
    13     -1.600424  1 O  pz                26     -0.752419  2 H  s          
    10     -0.651870  1 O  pz                 7     -0.230559  1 O  pz         
    24     -0.214730  2 H  s                  3     -0.137928  1 O  s          
    21      0.092768  1 O  d  0               2     -0.051223  1 O  s          

 Vector   12  Occ=0.000000D+00  E= 5.113539D-01  Symmetry=e
              MO Center=  6.5D-18, -4.4D-17, -9.0D-01, r^2= 3.3D+00
   Bfn.  Coefficient  Atom+Function         Bfn.  Coefficient  Atom+Function  
  ----- ------------  ---------------      ----- ------------  ---------------
    31      1.591863  2 H  py                12     -0.755236  1 O  py         
     9     -0.444045  1 O  py                30     -0.235643  2 H  px         
     6     -0.140524  1 O  py                11      0.111797  1 O  px         
    20      0.099627  1 O  d -1               8      0.065732  1 O  px         
    15     -0.028209  1 O  d -1       

 Vector   13  Occ=0.000000D+00  E= 5.113539D-01  Symmetry=e
              MO Center= -1.1D-17, -1.6D-18, -9.0D-01, r^2= 3.3D+00
   Bfn.  Coefficient  Atom+Function         Bfn.  Coefficient  Atom+Function  
  ----- ------------  ---------------      ----- ------------  ---------------
    30      1.591863  2 H  px                11     -0.755236  1 O  px         
     8     -0.444045  1 O  px                31      0.235643  2 H  py         
     5     -0.140524  1 O  px                12     -0.111797  1 O  py         
    22     -0.099627  1 O  d  1               9     -0.065732  1 O  py         
    17      0.028209  1 O  d  1       

 Vector   14  Occ=0.000000D+00  E= 7.191916D-01  Symmetry=a1
              MO Center=  1.0D-16, -1.2D-16, -1.0D+00, r^2= 3.6D+00
   Bfn.  Coefficient  Atom+Function         Bfn.  Coefficient  Atom+Function  
  ----- ------------  ---------------      ----- ------------  ---------------
    25      5.500059  2 H  s                  4     -4.798785  1 O  s          
    32      2.827636  2 H  pz                 3     -2.129859  1 O  s          
    13      1.098134  1 O  pz                26      0.959610  2 H  s          
    10      0.847355  1 O  pz                 7      0.323997  1 O  pz         
    24      0.312968  2 H  s                  1      0.071426  1 O  s          

 Vector   15  Occ=0.000000D+00  E= 9.172261D-01  Symmetry=a1
              MO Center= -8.8D-17,  2.6D-17, -3.1D-01, r^2= 3.0D+00
   Bfn.  Coefficient  Atom+Function         Bfn.  Coefficient  Atom+Function  
  ----- ------------  ---------------      ----- ------------  ---------------
    25      5.460101  2 H  s                  4     -4.015373  1 O  s          
    13      1.659039  1 O  pz                 3     -1.088100  1 O  s          
    32      0.934984  2 H  pz                24     -0.767479  2 H  s          
    21     -0.608975  1 O  d  0              10      0.530032  1 O  pz         
    26      0.413930  2 H  s                 29      0.270088  2 H  pz         

 Vector   16  Occ=0.000000D+00  E= 1.072335D+00  Symmetry=b1
              MO Center= -8.8D-16,  5.4D-17,  1.1D-01, r^2= 1.5D+00
   Bfn.  Coefficient  Atom+Function         Bfn.  Coefficient  Atom+Function  
  ----- ------------  ---------------      ----- ------------  ---------------
    23      1.012228  1 O  d  2       

 Vector   17  Occ=0.000000D+00  E= 1.072337D+00  Symmetry=b2
              MO Center= -1.0D-15,  9.9D-16,  1.1D-01, r^2= 1.5D+00
   Bfn.  Coefficient  Atom+Function         Bfn.  Coefficient  Atom+Function  
  ----- ------------  ---------------      ----- ------------  ---------------
    19      1.012228  1 O  d -2       

 Vector   18  Occ=0.000000D+00  E= 1.191887D+00  Symmetry=e
              MO Center=  1.0D-15, -2.2D-16,  3.0D-01, r^2= 2.0D+00
   Bfn.  Coefficient  Atom+Function         Bfn.  Coefficient  Atom+Function  
  ----- ------------  ---------------      ----- ------------  ---------------
    20      0.798471  1 O  d -1              22      0.790266  1 O  d  1       
    31      0.614856  2 H  py                30     -0.608538  2 H  px         
    12     -0.420952  1 O  py                11      0.416627  1 O  px         
     6     -0.167583  1 O  py                 5      0.165861  1 O  px         
     9      0.086734  1 O  py                 8     -0.085843  1 O  px         

 Vector   19  Occ=0.000000D+00  E= 1.191887D+00  Symmetry=e
              MO Center= -2.7D-17, -4.3D-16,  3.0D-01, r^2= 2.0D+00
   Bfn.  Coefficient  Atom+Function         Bfn.  Coefficient  Atom+Function  
  ----- ------------  ---------------      ----- ------------  ---------------
    22     -0.798471  1 O  d  1              20      0.790266  1 O  d -1       
    30      0.614856  2 H  px                31      0.608538  2 H  py         
    11     -0.420952  1 O  px                12     -0.416627  1 O  py         
     5     -0.167583  1 O  px                 6     -0.165861  1 O  py         
     8      0.086734  1 O  px                 9      0.085843  1 O  py         

 Vector   20  Occ=0.000000D+00  E= 1.341854D+00  Symmetry=a1
              MO Center=  9.2D-17, -1.7D-17,  4.9D-01, r^2= 1.8D+00
   Bfn.  Coefficient  Atom+Function         Bfn.  Coefficient  Atom+Function  
  ----- ------------  ---------------      ----- ------------  ---------------
    25      3.922314  2 H  s                  4     -2.987464  1 O  s          
    10      1.584924  1 O  pz                32      1.359431  2 H  pz         
     3     -1.180191  1 O  s                  7     -0.688756  1 O  pz         
    21      0.562098  1 O  d  0              13      0.462134  1 O  pz         
    29      0.410082  2 H  pz                26      0.388924  2 H  s          

 Vector   21  Occ=0.000000D+00  E= 1.394870D+00  Symmetry=e
              MO Center=  3.3D-16,  8.9D-18, -2.2D-01, r^2= 1.5D+00
   Bfn.  Coefficient  Atom+Function         Bfn.  Coefficient  Atom+Function  
  ----- ------------  ---------------      ----- ------------  ---------------
     9      1.375376  1 O  py                 6     -0.921732  1 O  py         
    31     -0.606635  2 H  py                20     -0.378529  1 O  d -1       
     8     -0.365677  1 O  px                 5      0.245064  1 O  px         
    30      0.161288  2 H  px                12     -0.148630  1 O  py         
    22     -0.100641  1 O  d  1              11      0.039517  1 O  px         

 Vector   22  Occ=0.000000D+00  E= 1.394870D+00  Symmetry=e
              MO Center=  3.7D-16, -1.1D-16, -2.2D-01, r^2= 1.5D+00
   Bfn.  Coefficient  Atom+Function         Bfn.  Coefficient  Atom+Function  
  ----- ------------  ---------------      ----- ------------  ---------------
     8      1.375376  1 O  px                 5     -0.921732  1 O  px         
    30     -0.606635  2 H  px                22      0.378529  1 O  d  1       
     9      0.365677  1 O  py                 6     -0.245064  1 O  py         
    31     -0.161288  2 H  py                11     -0.148630  1 O  px         
    20     -0.100641  1 O  d -1              12     -0.039517  1 O  py         

 Vector   23  Occ=0.000000D+00  E= 1.685623D+00  Symmetry=a1
              MO Center=  9.8D-17,  1.6D-16, -1.7D-02, r^2= 1.8D+00
   Bfn.  Coefficient  Atom+Function         Bfn.  Coefficient  Atom+Function  
  ----- ------------  ---------------      ----- ------------  ---------------
    24      1.475964  2 H  s                 10      1.271458  1 O  pz         
     3      1.112615  1 O  s                 21     -1.105202  1 O  d  0       
     2     -0.856952  1 O  s                  4     -0.737703  1 O  s          
    25     -0.448626  2 H  s                  7     -0.431174  1 O  pz         
    32     -0.366863  2 H  pz                 1     -0.340353  1 O  s          

 Vector   24  Occ=0.000000D+00  E= 2.036431D+00  Symmetry=e
              MO Center=  1.2D-16, -8.0D-17, -6.5D-01, r^2= 1.1D+00
   Bfn.  Coefficient  Atom+Function         Bfn.  Coefficient  Atom+Function  
  ----- ------------  ---------------      ----- ------------  ---------------
    28      1.350686  2 H  py                20      0.779183  1 O  d -1       
     9     -0.525196  1 O  py                31     -0.142372  2 H  py         
    12      0.128759  1 O  py                15     -0.066356  1 O  d -1       
    27      0.050910  2 H  px                22     -0.029369  1 O  d  1       

 Vector   25  Occ=0.000000D+00  E= 2.036431D+00  Symmetry=e
              MO Center=  3.9D-17, -1.4D-16, -6.5D-01, r^2= 1.1D+00
   Bfn.  Coefficient  Atom+Function         Bfn.  Coefficient  Atom+Function  
  ----- ------------  ---------------      ----- ------------  ---------------
    27      1.350686  2 H  px                22     -0.779183  1 O  d  1       
     8     -0.525196  1 O  px                30     -0.142372  2 H  px         
    11      0.128759  1 O  px                17      0.066356  1 O  d  1       
    28     -0.050910  2 H  py                20     -0.029369  1 O  d -1       

 Vector   26  Occ=0.000000D+00  E= 2.427632D+00  Symmetry=a1
              MO Center=  5.8D-18,  3.4D-18, -7.2D-01, r^2= 9.1D-01
   Bfn.  Coefficient  Atom+Function         Bfn.  Coefficient  Atom+Function  
  ----- ------------  ---------------      ----- ------------  ---------------
     3      1.789160  1 O  s                 25     -1.761029  2 H  s          
     2     -1.340181  1 O  s                  4      1.181735  1 O  s          
    32     -1.185369  2 H  pz                29      1.045672  2 H  pz         
     7      0.680637  1 O  pz                 1     -0.590012  1 O  s          
    10     -0.545318  1 O  pz                26     -0.241508  2 H  s          

 Vector   27  Occ=0.000000D+00  E= 2.738859D+00  Symmetry=a1
              MO Center=  4.1D-17,  3.2D-17, -2.6D-01, r^2= 1.6D+00
   Bfn.  Coefficient  Atom+Function         Bfn.  Coefficient  Atom+Function  
  ----- ------------  ---------------      ----- ------------  ---------------
    25     -5.114460  2 H  s                  3      4.708296  1 O  s          
     4      3.487151  1 O  s                 10     -2.763944  1 O  pz         
    24     -2.436573  2 H  s                 32     -1.533887  2 H  pz         
     2     -1.457207  1 O  s                 21      1.397779  1 O  d  0       
    13     -1.074351  1 O  pz                29     -1.075589  2 H  pz         

 Vector   28  Occ=0.000000D+00  E= 3.451769D+00  Symmetry=b1
              MO Center= -9.6D-18,  8.2D-17,  1.1D-01, r^2= 6.1D-01
   Bfn.  Coefficient  Atom+Function         Bfn.  Coefficient  Atom+Function  
  ----- ------------  ---------------      ----- ------------  ---------------
    18      1.165719  1 O  d  2              23     -0.578690  1 O  d  2       

 Vector   29  Occ=0.000000D+00  E= 3.451770D+00  Symmetry=b2
              MO Center=  5.4D-17,  2.0D-17,  1.1D-01, r^2= 6.1D-01
   Bfn.  Coefficient  Atom+Function         Bfn.  Coefficient  Atom+Function  
  ----- ------------  ---------------      ----- ------------  ---------------
    14      1.165719  1 O  d -2              19     -0.578690  1 O  d -2       

 Vector   30  Occ=0.000000D+00  E= 3.549812D+00  Symmetry=e
              MO Center= -6.6D-17,  2.8D-17,  9.6D-02, r^2= 7.4D-01
   Bfn.  Coefficient  Atom+Function         Bfn.  Coefficient  Atom+Function  
  ----- ------------  ---------------      ----- ------------  ---------------
    17      1.123951  1 O  d  1              22     -0.657070  1 O  d  1       
    15      0.416757  1 O  d -1              30      0.414089  2 H  px         
    20     -0.243639  1 O  d -1              11     -0.212791  1 O  px         
    31     -0.153543  2 H  py                27     -0.137824  2 H  px         
     8     -0.111221  1 O  px                12      0.078902  1 O  py         

 Vector   31  Occ=0.000000D+00  E= 3.549812D+00  Symmetry=e
              MO Center=  1.0D-17, -4.2D-18,  9.6D-02, r^2= 7.4D-01
   Bfn.  Coefficient  Atom+Function         Bfn.  Coefficient  Atom+Function  
  ----- ------------  ---------------      ----- ------------  ---------------
    15      1.123951  1 O  d -1              20     -0.657070  1 O  d -1       
    17     -0.416757  1 O  d  1              31     -0.414089  2 H  py         
    22      0.243639  1 O  d  1              12      0.212791  1 O  py         
    30     -0.153543  2 H  px                28      0.137824  2 H  py         
     9      0.111221  1 O  py                11      0.078902  1 O  px         

 Vector   32  Occ=0.000000D+00  E= 3.964207D+00  Symmetry=a1
              MO Center=  8.9D-18,  7.4D-19, -4.5D-04, r^2= 8.4D-01
   Bfn.  Coefficient  Atom+Function         Bfn.  Coefficient  Atom+Function  
  ----- ------------  ---------------      ----- ------------  ---------------
     3      2.666274  1 O  s                 25     -2.169541  2 H  s          
    24     -1.701283  2 H  s                 10     -1.618258  1 O  pz         
     4      1.353350  1 O  s                 16      1.269549  1 O  d  0       
    29     -1.168123  2 H  pz                32     -0.811994  2 H  pz         
     2     -0.510821  1 O  s                  1     -0.293192  1 O  s          


 center of mass
 --------------
 x =   0.00000000 y =   0.00000000 z =   0.10372216

 moments of inertia (a.u.)
 ------------------
           3.262459270908           0.000000000000           0.000000000000
           0.000000000000           3.262459270908           0.000000000000
           0.000000000000           0.000000000000           0.000000000000

     Multipole analysis of the density
     ---------------------------------

     L   x y z        total         alpha         beta         nuclear
     -   - - -        -----         -----         ----         -------
     0   0 0 0     -1.000000     -5.000000     -5.000000      9.000000

     1   1 0 0     -0.000000     -0.000000     -0.000000      0.000000
     1   0 1 0     -0.000000     -0.000000     -0.000000      0.000000
     1   0 0 1     -0.541234     -0.304654     -0.304654      0.068075

     2   2 0 0     -8.274840     -4.137420     -4.137420      0.000000
     2   1 1 0     -0.000000     -0.000000     -0.000000      0.000000
     2   1 0 1     -0.000000     -0.000000     -0.000000      0.000000
     2   0 2 0     -8.274840     -4.137420     -4.137420      0.000000
     2   0 1 1     -0.000000     -0.000000     -0.000000      0.000000
     2   0 0 2     -6.444907     -4.752088     -4.752088      3.059268

 Line search: 
     step= 1.00 grad=-1.3D-04 hess= 9.2D-05 energy=    -75.735344 mode=downhill
 new step= 0.72                   predicted energy=    -75.735351
  no constraints, skipping    0.0000000000000000     
  no constraints, skipping    0.0000000000000000     
  no constraints, skipping    0.0000000000000000     

          --------
          Step   1
          --------


                         Geometry "geometry" -> "geometry"
                         ---------------------------------

 Output coordinates in angstroms (scale by  1.889725989 to convert to a.u.)

  No.       Tag          Charge          X              Y              Z
 ---- ---------------- ---------- -------------- -------------- --------------
    1 O                    8.0000     0.00000000     0.00000000     0.11164459
    2 H                    1.0000     0.00000000     0.00000000    -0.86713257

      Atomic Mass 
      ----------- 

      O                 15.994910
      H                  1.007825


 Effective nuclear repulsion energy (a.u.)       4.3252112615

            Nuclear Dipole moment (a.u.) 
            ----------------------------
        X                 Y               Z
 ---------------- ---------------- ----------------
     0.0000000000     0.0000000000     0.0491785245

      Symmetry information
      --------------------

 Group name             C4v       
 Group number             18
 Group order               8
 No. of unique centers     2

      Symmetry unique atoms

     1    2


                                 NWChem DFT Module
                                 -----------------




 Summary of "ao basis" -> "cc-pvdz" (spherical)
 ------------------------------------------------------------------------------
       Tag                 Description            Shells   Functions and Types
 ---------------- ------------------------------  ------  ---------------------
 O                        aug-cc-pvdz                9       23   4s3p2d
 H                        aug-cc-pvdz                5        9   3s2p


      Symmetry analysis of basis
      --------------------------

        a1         14
        a2          0
        b1          2
        b2          2
        e          14

  texas integral default override: limxmem =             50000000
  Caching 1-el integrals 

            General Information
            -------------------
          SCF calculation type: DFT
          Wavefunction type:  closed shell.
          No. of atoms     :     2
          No. of electrons :    10
           Alpha electrons :     5
            Beta electrons :     5
          Charge           :    -1
          Spin multiplicity:     1
          Use of symmetry is: on ; symmetry adaption is: on 
          Maximum number of iterations: 500
          This is a Direct SCF calculation.
          AO basis - number of functions:    32
                     number of shells:    14
          Convergence on energy requested:  1.00D-06
          Convergence on density requested:  1.00D-05
          Convergence on gradient requested:  5.00D-04

              XC Information
              --------------
          PerdewBurkeErnzerhof Exchange Functional  1.000          
            Perdew 1991 LDA Correlation Functional  1.000 local    
           PerdewBurkeErnz. Correlation Functional  1.000 non-local

             Grid Information
             ----------------
          Grid used for XC integration:  medium    
          Radial quadrature: Mura-Knowles        
          Angular quadrature: Lebedev. 
          Tag              B.-S. Rad. Rad. Pts. Rad. Cut. Ang. Pts.
          ---              ---------- --------- --------- ---------
          O                   0.60       49           9.0       434
          H                   0.35       45           9.0       434
          Grid pruning is: on 
          Number of quadrature shells:    94
          Spatial weights used:  Erf1

          Convergence Information
          -----------------------
          Convergence aids based upon iterative change in 
          total energy or number of iterations. 
          Levelshifting, if invoked, occurs when the 
          HOMO/LUMO gap drops below (HL_TOL):  1.00D-02
          DIIS, if invoked, will attempt to extrapolate 
          using up to (NFOCK): 10 stored Fock matrices.

                    Damping( 0%)  Levelshifting(0.5)       DIIS
                  --------------- ------------------- ---------------
          dE  on:    start            ASAP                start   
          dE off:    2 iters        500 iters           500 iters 


      Screening Tolerance Information
      -------------------------------
          Density screening/tol_rho:  1.00D-10
          AO Gaussian exp screening on grid/accAOfunc:  14
          CD Gaussian exp screening on grid/accCDfunc:  20
          XC Gaussian exp screening on grid/accXCfunc:  20
          Schwarz screening/accCoul:  1.00D-08


 Loading old vectors from job with title :




      Symmetry analysis of molecular orbitals - initial
      -------------------------------------------------

  Numbering of irreducible representations: 

     1 a1          2 a2          3 b1          4 b2          5 e       

  Orbital symmetries:

     1 a1          2 a1          3 a1          4 e           5 e       
     6 a1          7 a1          8 e           9 e          10 a1      
    11 a1         12 e          13 e          14 a1         15 a1      

   Time after variat. SCF:      1.6
   Time prior to 1st pass:      1.6

 Grid_pts file          = ./oh-dat.gridpts.00
 Record size in doubles =  12289        No. of grid_pts per rec  =   3070
 Max. records in memory =      2        Max. recs in file   =   4694736


           Memory utilization after 1st SCF pass: 
           Heap Space remaining (MW):       13.08            13080738
          Stack Space remaining (MW):       65.54            65535700

   convergence    iter        energy       DeltaE   RMS-Dens  Diis-err    time
 ---------------- ----- ----------------- --------- --------- ---------  ------
 d= 0,ls=0.0,diis     1    -75.7353477256 -8.01D+01  1.67D-04  2.26D-05     1.7
 d= 0,ls=0.0,diis     2    -75.7353497546 -2.03D-06  1.08D-04  6.25D-06     1.8
 d= 0,ls=0.0,diis     3    -75.7353478310  1.92D-06  7.09D-05  2.48D-05     1.8
 d= 0,ls=0.0,diis     4    -75.7353504303 -2.60D-06  6.25D-06  7.70D-08     1.8
 d= 0,ls=0.0,diis     5    -75.7353504394 -9.08D-09  8.54D-07  1.09D-09     1.9


         Total DFT energy =      -75.735350439373
      One electron energy =     -116.036664359051
           Coulomb energy =       44.991516122368
    Exchange-Corr. energy =       -9.015413464158
 Nuclear repulsion energy =        4.325211261468

 Numeric. integr. density =       10.000000335562

     Total iterative time =      0.3s



                  Occupations of the irreducible representations
                  ----------------------------------------------

                     irrep           alpha         beta
                     --------     --------     --------
                     a1                3.0          3.0
                     a2                0.0          0.0
                     b1                0.0          0.0
                     b2                0.0          0.0
                     e                 2.0          2.0


                       DFT Final Molecular Orbital Analysis
                       ------------------------------------

 Vector    1  Occ=2.000000D+00  E=-1.842461D+01  Symmetry=a1
              MO Center=  4.6D-23,  4.4D-23,  1.1D-01, r^2= 1.5D-02
   Bfn.  Coefficient  Atom+Function         Bfn.  Coefficient  Atom+Function  
  ----- ------------  ---------------      ----- ------------  ---------------
     1      1.004634  1 O  s          

[...]

 Vector  310  Occ=0.000000D+00  E= 3.543170D+01  Symmetry=e
              MO Center=  1.4D-17,  7.1D-18, -4.7D-01, r^2= 4.0D-01
   Bfn.  Coefficient  Atom+Function         Bfn.  Coefficient  Atom+Function  
  ----- ------------  ---------------      ----- ------------  ---------------
   207      7.813146  2 H  py                46      5.952736  1 O  d -1       
    19     -5.818554  1 O  py               226      4.132557  2 H  d -1       
    22     -3.671358  1 O  py                51      3.521336  1 O  d -1       
    83     -3.483922  1 O  f -1             204      3.286782  2 H  py         
   210      2.742040  2 H  py               201     -2.430769  2 H  py         

 Vector  311  Occ=0.000000D+00  E= 3.833402D+01  Symmetry=a1
              MO Center= -9.3D-16, -1.4D-14,  2.8D-02, r^2= 3.3D-01
   Bfn.  Coefficient  Atom+Function         Bfn.  Coefficient  Atom+Function  
  ----- ------------  ---------------      ----- ------------  ---------------
     5     23.577961  1 O  s                208    -14.280995  2 H  pz         
    17    -13.322307  1 O  pz                 7    -12.312047  1 O  s          
     6     10.737829  1 O  s                  4     -9.852092  1 O  s          
    23      9.808756  1 O  pz                20     -8.852634  1 O  pz         
    42      8.280098  1 O  d  0             192     -7.944861  2 H  s          

 Vector  312  Occ=0.000000D+00  E= 3.860825D+01  Symmetry=e
              MO Center=  1.3D-16, -3.5D-18, -3.2D-01, r^2= 4.3D-01
   Bfn.  Coefficient  Atom+Function         Bfn.  Coefficient  Atom+Function  
  ----- ------------  ---------------      ----- ------------  ---------------
   206     14.822225  2 H  px                18    -12.665049  1 O  px         
    48    -11.221977  1 O  d  1             228     -9.999934  2 H  d  1       
    78      6.369068  1 O  f  1             203      6.126817  2 H  px         
    21     -5.443665  1 O  px                53     -4.848594  1 O  d  1       
   209      4.341498  2 H  px               233     -4.318589  2 H  d  1       

 Vector  313  Occ=0.000000D+00  E= 3.860825D+01  Symmetry=e
              MO Center=  2.9D-16,  1.3D-14, -3.2D-01, r^2= 4.3D-01
   Bfn.  Coefficient  Atom+Function         Bfn.  Coefficient  Atom+Function  
  ----- ------------  ---------------      ----- ------------  ---------------
   207     14.822225  2 H  py                19    -12.665049  1 O  py         
    46     11.221977  1 O  d -1             226      9.999934  2 H  d -1       
    76     -6.369068  1 O  f -1             204      6.126817  2 H  py         
    22     -5.443665  1 O  py                51      4.848594  1 O  d -1       
   210      4.341498  2 H  py               231      4.318589  2 H  d -1       

 Vector  314  Occ=0.000000D+00  E= 4.059732D+01  Symmetry=a1
              MO Center= -1.8D-15,  1.1D-16, -7.1D-01, r^2= 3.6D-01
   Bfn.  Coefficient  Atom+Function         Bfn.  Coefficient  Atom+Function  
  ----- ------------  ---------------      ----- ------------  ---------------
     5     27.204502  1 O  s                208    -17.269747  2 H  pz         
    17    -15.698120  1 O  pz                 7    -12.672088  1 O  s          
   192    -10.889838  2 H  s                 23      9.635324  1 O  pz         
   191      9.505583  2 H  s                227     -9.386699  2 H  d  0       
     6      8.986279  1 O  s                194      7.984271  2 H  s          

 Vector  315  Occ=0.000000D+00  E= 1.029610D+02  Symmetry=a1
              MO Center= -4.2D-16,  1.1D-17,  1.0D-01, r^2= 1.0D-01
   Bfn.  Coefficient  Atom+Function         Bfn.  Coefficient  Atom+Function  
  ----- ------------  ---------------      ----- ------------  ---------------
     2     29.524127  1 O  s                  1     26.578000  1 O  s          
     3      6.892760  1 O  s                 20     -6.572178  1 O  pz         
     4     -6.082010  1 O  s                 17      5.653567  1 O  pz         
     6      5.179454  1 O  s                  7     -4.564867  1 O  s          
   192     -4.554629  2 H  s                194      3.991581  2 H  s          


 center of mass
 --------------
 x =   0.00000000 y =   0.00000000 z =   0.09658098

 moments of inertia (a.u.)
 ------------------
           3.205714327112           0.000000000000           0.000000000000
           0.000000000000           3.205714327112           0.000000000000
           0.000000000000           0.000000000000           0.000000000000

     Multipole analysis of the density
     ---------------------------------

     L   x y z        total         alpha         beta         nuclear
     -   - - -        -----         -----         ----         -------
     0   0 0 0     -1.000000     -5.000000     -5.000000      9.000000

     1   1 0 0     -0.000000     -0.000000     -0.000000      0.000000
     1   0 1 0     -0.000000     -0.000000     -0.000000      0.000000
     1   0 0 1     -0.502623     -0.256993     -0.256993      0.011363

     2   2 0 0     -9.214798     -4.607399     -4.607399      0.000000
     2   1 1 0     -0.000000     -0.000000     -0.000000      0.000000
     2   1 0 1      0.000000      0.000000      0.000000      0.000000
     2   0 2 0     -9.214798     -4.607399     -4.607399      0.000000
     2   0 1 1      0.000000      0.000000      0.000000      0.000000
     2   0 0 2     -6.809183     -4.907374     -4.907374      3.005566

 Line search: 
     step= 1.00 grad=-2.2D-08 hess= 3.1D-08 energy=    -75.763643 mode=accept  
 new step= 1.00                   predicted energy=    -75.763643
  no constraints, skipping    0.0000000000000000     
  no constraints, skipping    0.0000000000000000     
  no constraints, skipping    0.0000000000000000     

          --------
          Step   1
          --------


                         Geometry "geometry" -> "geometry"
                         ---------------------------------

 Output coordinates in angstroms (scale by  1.889725989 to convert to a.u.)

  No.       Tag          Charge          X              Y              Z
 ---- ---------------- ---------- -------------- -------------- --------------
    1 O                    8.0000     0.00000000     0.00000000     0.10878588
    2 H                    1.0000     0.00000000     0.00000000    -0.86427386

      Atomic Mass 
      ----------- 

      O                 15.994910
      H                  1.007825


 Effective nuclear repulsion energy (a.u.)       4.3506249774

            Nuclear Dipole moment (a.u.) 
            ----------------------------
        X                 Y               Z
 ---------------- ---------------- ----------------
     0.0000000000     0.0000000000     0.0113632525

      Symmetry information
      --------------------

 Group name             C4v       
 Group number             18
 Group order               8
 No. of unique centers     2

      Symmetry unique atoms

     1    2


                                 NWChem DFT Module
                                 -----------------




 Summary of "ao basis" -> "cc-pv6z" (spherical)
 ------------------------------------------------------------------------------
       Tag                 Description            Shells   Functions and Types
 ---------------- ------------------------------  ------  ---------------------
 O                        aug-cc-pv6z               35      189   8s7p6d5f4g3h2i
 H                        aug-cc-pv6z               27      127   7s6p5d4f3g2h


      Symmetry analysis of basis
      --------------------------

        a1         76
        a2         14
        b1         36
        b2         36
        e         154


  The DFT is already converged 

         Total DFT energy =    -75.763643345885


            General Information
            -------------------
          SCF calculation type: DFT
          Wavefunction type:  closed shell.
          No. of atoms     :     2
          No. of electrons :    10
           Alpha electrons :     5
            Beta electrons :     5
          Charge           :    -1
          Spin multiplicity:     1
          Use of symmetry is: on ; symmetry adaption is: on 
          Maximum number of iterations: 500
          This is a Direct SCF calculation.
          AO basis - number of functions:   316
                     number of shells:    62
          Convergence on energy requested:  1.00D-06
          Convergence on density requested:  1.00D-05
          Convergence on gradient requested:  5.00D-04

              XC Information
              --------------
          PerdewBurkeErnzerhof Exchange Functional  1.000          
            Perdew 1991 LDA Correlation Functional  1.000 local    
           PerdewBurkeErnz. Correlation Functional  1.000 non-local

             Grid Information
             ----------------
          Grid used for XC integration:  medium    
          Radial quadrature: Mura-Knowles        
          Angular quadrature: Lebedev. 
          Tag              B.-S. Rad. Rad. Pts. Rad. Cut. Ang. Pts.
          ---              ---------- --------- --------- ---------
          O                   0.60       49          12.0       434
          H                   0.35       45          12.0       434
          Grid pruning is: on 
          Number of quadrature shells:    94
          Spatial weights used:  Erf1

          Convergence Information
          -----------------------
          Convergence aids based upon iterative change in 
          total energy or number of iterations. 
          Levelshifting, if invoked, occurs when the 
          HOMO/LUMO gap drops below (HL_TOL):  1.00D-02
          DIIS, if invoked, will attempt to extrapolate 
          using up to (NFOCK): 10 stored Fock matrices.

                    Damping( 0%)  Levelshifting(0.5)       DIIS
                  --------------- ------------------- ---------------
          dE  on:    start            ASAP                start   
          dE off:    2 iters        500 iters           500 iters 


      Screening Tolerance Information
      -------------------------------
          Density screening/tol_rho:  1.00D-10
          AO Gaussian exp screening on grid/accAOfunc:  14
          CD Gaussian exp screening on grid/accCDfunc:  20
          XC Gaussian exp screening on grid/accXCfunc:  20
          Schwarz screening/accCoul:  1.00D-08

  texas integral default override: limxmem =             50000000
  texas integral default override: limxmem =             50000000


                            NWChem DFT Gradient Module
                            --------------------------



  charge          =  -1.00
  wavefunction    = closed shell

  Using symmetry
  texas integral default override: limxmem =             50000000
  texas integral default override: limxmem =             50000000


                         DFT ENERGY GRADIENTS

    atom               coordinates                        gradient
                 x          y          z           x          y          z
   1 O       0.000000   0.000000   0.205576    0.000000   0.000000   0.000042
   2 H       0.000000   0.000000  -1.633241    0.000000   0.000000  -0.000042

                 ----------------------------------------
                 |  Time  |  1-e(secs)   |  2-e(secs)   |
                 ----------------------------------------
                 |  CPU   |       0.14   |      25.30   |
                 ----------------------------------------
                 |  WALL  |       0.14   |      29.35   |
                 ----------------------------------------
  no constraints, skipping    0.0000000000000000     

  Step       Energy      Delta E   Gmax     Grms     Xrms     Xmax   Walltime
  ---- ---------------- -------- -------- -------- -------- -------- --------
@    1     -75.76364335  9.0D-09  0.00004  0.00004  0.00006  0.00010   2192.4
                                     ok       ok       ok       ok  



                                Z-matrix (autoz)
                                -------- 

 Units are Angstrom for bonds and degrees for angles

      Type          Name      I     J     K     L     M      Value     Gradient
      ----------- --------  ----- ----- ----- ----- ----- ---------- ----------
    1 Stretch                  1     2                       0.97306    0.00004


      ----------------------
      Optimization converged
      ----------------------


  Step       Energy      Delta E   Gmax     Grms     Xrms     Xmax   Walltime
  ---- ---------------- -------- -------- -------- -------- -------- --------
@    1     -75.76364335  9.0D-09  0.00004  0.00004  0.00006  0.00010   2192.4
                                     ok       ok       ok       ok  



                                Z-matrix (autoz)
                                -------- 

 Units are Angstrom for bonds and degrees for angles

      Type          Name      I     J     K     L     M      Value     Gradient
      ----------- --------  ----- ----- ----- ----- ----- ---------- ----------
    1 Stretch                  1     2                       0.97306    0.00004



                         Geometry "geometry" -> "geometry"
                         ---------------------------------

 Output coordinates in angstroms (scale by  1.889725989 to convert to a.u.)

  No.       Tag          Charge          X              Y              Z
 ---- ---------------- ---------- -------------- -------------- --------------
    1 O                    8.0000     0.00000000     0.00000000     0.10878588
    2 H                    1.0000     0.00000000     0.00000000    -0.86427386

      Atomic Mass 
      ----------- 

      O                 15.994910
      H                  1.007825


 Effective nuclear repulsion energy (a.u.)       4.3506249774

            Nuclear Dipole moment (a.u.) 
            ----------------------------
        X                 Y               Z
 ---------------- ---------------- ----------------
     0.0000000000     0.0000000000     0.0113632525

      Symmetry information
      --------------------

 Group name             C4v       
 Group number             18
 Group order               8
 No. of unique centers     2

      Symmetry unique atoms

     1    2


                Final and change from initial internal coordinates
                --------------------------------------------------



                                Z-matrix (autoz)
                                -------- 

 Units are Angstrom for bonds and degrees for angles

      Type          Name      I     J     K     L     M      Value       Change
      ----------- --------  ----- ----- ----- ----- ----- ---------- ----------
    1 Stretch                  1     2                       0.97306   -0.00011

 ==============================================================================
                                internuclear distances
 ------------------------------------------------------------------------------
       center one      |      center two      | atomic units |  angstroms
 ------------------------------------------------------------------------------
    2 H                |   1 O                |     1.83882  |     0.97306
 ------------------------------------------------------------------------------
                         number of included internuclear distances:          1
 ==============================================================================




 Task  times  cpu:     2041.2s     wall:     2060.5s


                                NWChem Input Module
                                -------------------


 Summary of allocated global arrays
-----------------------------------
  No active global arrays


MA_summarize_allocated_blocks: starting scan ...
MA_summarize_allocated_blocks: scan completed: 0 heap blocks, 0 stack blocks
MA usage statistics:

	allocation statistics:
					      heap	     stack
					      ----	     -----
	current number of blocks	         0	         0
	maximum number of blocks	        25	        58
	current total bytes		         0	         0
	maximum total bytes		    277496	 572502552
	maximum total K-bytes		       278	    572503
	maximum total M-bytes		         1	       573


                                     CITATION
                                     --------
                Please cite the following reference when publishing
                           results obtained with NWChem:

          E. Apra, E. J. Bylaska, W. A. de Jong, N. Govind, K. Kowalski,
       T. P. Straatsma, M. Valiev, H. J. J. van Dam, Y. Alexeev, J. Anchell,
       V. Anisimov, F. W. Aquino, R. Atta-Fynn, J. Autschbach, N. P. Bauman,
     J. C. Becca, D. E. Bernholdt, K. Bhaskaran-Nair, S. Bogatko, P. Borowski,
         J. Boschen, J. Brabec, A. Bruner, E. Cauet, Y. Chen, G. N. Chuev,
      C. J. Cramer, J. Daily, M. J. O. Deegan, T. H. Dunning Jr., M. Dupuis,
   K. G. Dyall, G. I. Fann, S. A. Fischer, A. Fonari, H. Fruchtl, L. Gagliardi,
      J. Garza, N. Gawande, S. Ghosh, K. Glaesemann, A. W. Gotz, J. Hammond,
       V. Helms, E. D. Hermes, K. Hirao, S. Hirata, M. Jacquelin, L. Jensen,
   B. G. Johnson, H. Jonsson, R. A. Kendall, M. Klemm, R. Kobayashi, V. Konkov,
      S. Krishnamoorthy, M. Krishnan, Z. Lin, R. D. Lins, R. J. Littlefield,
      A. J. Logsdail, K. Lopata, W. Ma, A. V. Marenich, J. Martin del Campo,
   D. Mejia-Rodriguez, J. E. Moore, J. M. Mullin, T. Nakajima, D. R. Nascimento,
    J. A. Nichols, P. J. Nichols, J. Nieplocha, A. Otero-de-la-Roza, B. Palmer,
    A. Panyala, T. Pirojsirikul, B. Peng, R. Peverati, J. Pittner, L. Pollack,
   R. M. Richard, P. Sadayappan, G. C. Schatz, W. A. Shelton, D. W. Silverstein,
   D. M. A. Smith, T. A. Soares, D. Song, M. Swart, H. L. Taylor, G. S. Thomas,
            V. Tipparaju, D. G. Truhlar, K. Tsemekhman, T. Van Voorhis,
      A. Vazquez-Mayagoitia, P. Verma, O. Villa, A. Vishnu, K. D. Vogiatzis,
        D. Wang, J. H. Weare, M. J. Williamson, T. L. Windus, K. Wolinski,
        A. T. Wong, Q. Wu, C. Yang, Q. Yu, M. Zacharias, Z. Zhang, Y. Zhao,
                                and R. J. Harrison
                        "NWChem: Past, present, and future
                         J. Chem. Phys. 152, 184102 (2020)
                               doi:10.1063/5.0004997

                                      AUTHORS
                                      -------
  E. Apra, E. J. Bylaska, N. Govind, K. Kowalski, M. Valiev, D. Mejia-Rodriguez,
       A. Kunitsa, N. P. Bauman, A. Panyala, W. A. de Jong, T. P. Straatsma,
        H. J. J. van Dam, D. Wang, T. L. Windus, J. Hammond, J. Autschbach,
    K. Bhaskaran-Nair, J. Brabec, K. Lopata, S. A. Fischer, S. Krishnamoorthy,
     M. Jacquelin, W. Ma, M. Klemm, O. Villa, Y. Chen, V. Anisimov, F. Aquino,
    S. Hirata, M. T. Hackler, Eric Hermes, L. Jensen, J. E. Moore, J. C. Becca,
      V. Konjkov, T. Risthaus, M. Malagoli, A. Marenich, A. Otero-de-la-Roza,
        J. Mullin, P. Nichols, R. Peverati, J. Pittner, Y. Zhao, P.-D. Fan,
        A. Fonari, M. J. Williamson, R. J. Harrison, J. R. Rehr, M. Dupuis,
     D. Silverstein, D. M. A. Smith, J. Nieplocha, V. Tipparaju, M. Krishnan,
     B. E. Van Kuiken, A. Vazquez-Mayagoitia, M. Swart, Q. Wu, T. Van Voorhis,
     A. A. Auer, M. Nooijen, L. D. Crosby, E. Brown, G. Cisneros, G. I. Fann,
   H. Fruchtl, J. Garza, K. Hirao, R. A. Kendall, J. A. Nichols, K. Tsemekhman,
    K. Wolinski, J. Anchell, D. E. Bernholdt, P. Borowski, T. Clark, D. Clerc,
   H. Dachsel, M. J. O. Deegan, K. Dyall, D. Elwood, E. Glendening, M. Gutowski,
   A. C. Hess, J. Jaffe, B. G. Johnson, J. Ju, R. Kobayashi, R. Kutteh, Z. Lin,
   R. Littlefield, X. Long, B. Meng, T. Nakajima, S. Niu, L. Pollack, M. Rosing,
   K. Glaesemann, G. Sandrone, M. Stave, H. Taylor, G. Thomas, J. H. van Lenthe,
                               A. T. Wong, Z. Zhang.

 Total times  cpu:     2166.9s     wall:     2192.6s
