 argument  1 = oh0-dft-pbe.nw



============================== echo of input deck ==============================
echo
start oh-dat

memory heap 100 mb stack 500 mb global 1024 mb

geometry
  load ../xyz/oh-.xyz
  #load oh-.xyz
  symmetry c1
end

charge 0

basis "cc-pvdz" spherical
  * library cc-pvdz
end
basis "cc-pvtz" spherical
  * library cc-pvtz
end
basis "cc-pvqz" spherical
  * library cc-pvqz
end
basis "cc-pv5z" spherical
  * library cc-pv5z
end
basis "cc-pv6z" spherical
  * library cc-pv6z
end

dft
  odft
  direct
  mult 2
  # select PBE functional following https://doi.org/10.1002/aic.15517
  xc xpbe96 cpbe96
end

set int:txs:limxmem              50000000

set "ao basis" "cc-pvdz"
task dft optimize

set "ao basis" "cc-pvtz"
task dft optimize

set "ao basis" "cc-pvqz"
task dft optimize

set "ao basis" "cc-pv5z"
task dft optimize

set "ao basis" "cc-pv6z"
task dft optimize
================================================================================


                                         
                                         


             Northwest Computational Chemistry Package (NWChem) 7.0.1
             --------------------------------------------------------


                    Environmental Molecular Sciences Laboratory
                       Pacific Northwest National Laboratory
                                Richland, WA 99352

                              Copyright (c) 1994-2020
                       Pacific Northwest National Laboratory
                            Battelle Memorial Institute

             NWChem is an open-source computational chemistry package
                        distributed under the terms of the
                      Educational Community License (ECL) 2.0
             A copy of the license is included with this distribution
                              in the LICENSE.TXT file

                                  ACKNOWLEDGMENT
                                  --------------

            This software and its documentation were developed at the
            EMSL at Pacific Northwest National Laboratory, a multiprogram
            national laboratory, operated for the U.S. Department of Energy
            by Battelle under Contract Number DE-AC05-76RL01830. Support
            for this work was provided by the Department of Energy Office
            of Biological and Environmental Research, Office of Basic
            Energy Sciences, and the Office of Advanced Scientific Computing.


           Job information
           ---------------

    hostname        = node03
    program         = /home/hvandam/nwchem-1-srp-hpc/QA/tests/ZSM-5/nwc/../../../../bin/LINUX64/nwchem
    date            = Sat Jun  3 22:53:12 2023

    compiled        = Fri_Jun_02_17:17:24_2023
    source          = /home/hvandam/nwchem-1-srp-hpc
    nwchem branch   = 7.0.0
    nwchem revision = nwchem_on_git-4134-gde132dc
    ga revision     = 5.8.1
    use scalapack   = F
    input           = oh0-dft-pbe.nw
    prefix          = oh-dat.
    data base       = ./oh-dat.db
    status          = startup
    nproc           =       16
    time left       =  86399s



           Memory information
           ------------------

    heap     =   13107194 doubles =    100.0 Mbytes
    stack    =   65535999 doubles =    500.0 Mbytes
    global   =  134217728 doubles =   1024.0 Mbytes (distinct from heap & stack)
    total    =  212860921 doubles =   1624.0 Mbytes
    verify   = yes
    hardfail = no 


           Directory information
           ---------------------

  0 permanent = .
  0 scratch   = .




                                NWChem Input Module
                                -------------------



 Scaling coordinates for geometry "geometry" by  1.889725989
 (inverse scale =  0.529177249)

 Turning off AUTOSYM since
 SYMMETRY directive was detected!


          ------
          auto-z
          ------
  no constraints, skipping    0.0000000000000000     
  no constraints, skipping    0.0000000000000000     


                             Geometry "geometry" -> ""
                             -------------------------

 Output coordinates in angstroms (scale by  1.889725989 to convert to a.u.)

  No.       Tag          Charge          X              Y              Z
 ---- ---------------- ---------- -------------- -------------- --------------
    1 O                    8.0000    -0.00417984     0.10784588     0.00000000
    2 H                    1.0000     0.03343868    -0.86276708     0.00000000

      Atomic Mass 
      ----------- 

      O                 15.994910
      H                  1.007825


 Effective nuclear repulsion energy (a.u.)       4.3583200974

            Nuclear Dipole moment (a.u.) 
            ----------------------------
        X                 Y               Z
 ---------------- ---------------- ----------------
    -0.0000000000     0.0000000000     0.0000000000



                                Z-matrix (autoz)
                                -------- 

 Units are Angstrom for bonds and degrees for angles

      Type          Name      I     J     K     L     M      Value
      ----------- --------  ----- ----- ----- ----- ----- ----------
    1 Stretch                  1     2                       0.97134


            XYZ format geometry
            -------------------
     2
 geometry
 O                    -0.00417984     0.10784588     0.00000000
 H                     0.03343868    -0.86276708     0.00000000

 ==============================================================================
                                internuclear distances
 ------------------------------------------------------------------------------
       center one      |      center two      | atomic units |  angstroms
 ------------------------------------------------------------------------------
    2 H                |   1 O                |     1.83557  |     0.97134
 ------------------------------------------------------------------------------
                         number of included internuclear distances:          1
 ==============================================================================





 Summary of "cc-pvdz" -> "" (spherical)
 ------------------------------------------------------------------------------
       Tag                 Description            Shells   Functions and Types
 ---------------- ------------------------------  ------  ---------------------
 *                          cc-pvdz                   on all atoms 




 Summary of "cc-pvtz" -> "" (spherical)
 ------------------------------------------------------------------------------
       Tag                 Description            Shells   Functions and Types
 ---------------- ------------------------------  ------  ---------------------
 *                          cc-pvtz                   on all atoms 




 Summary of "cc-pvqz" -> "" (spherical)
 ------------------------------------------------------------------------------
       Tag                 Description            Shells   Functions and Types
 ---------------- ------------------------------  ------  ---------------------
 *                          cc-pvqz                   on all atoms 




 Summary of "cc-pv5z" -> "" (spherical)
 ------------------------------------------------------------------------------
       Tag                 Description            Shells   Functions and Types
 ---------------- ------------------------------  ------  ---------------------
 *                          cc-pv5z                   on all atoms 




 Summary of "cc-pv6z" -> "" (spherical)
 ------------------------------------------------------------------------------
       Tag                 Description            Shells   Functions and Types
 ---------------- ------------------------------  ------  ---------------------
 *                          cc-pv6z                   on all atoms 


  pbe96 is a nonlocal functional; adding pw91lda local functional. 


                           NWChem Geometry Optimization
                           ----------------------------


  no constraints, skipping    0.0000000000000000     
 maximum gradient threshold         (gmax) =   0.000450
 rms gradient threshold             (grms) =   0.000300
 maximum cartesian step threshold   (xmax) =   0.001800
 rms cartesian step threshold       (xrms) =   0.001200
 fixed trust radius                (trust) =   0.300000
 maximum step size to saddle      (sadstp) =   0.100000
 energy precision                  (eprec) =   5.0D-06
 maximum number of steps          (nptopt) =   40
 initial hessian option           (inhess) =    0
 line search option               (linopt) =    1
 hessian update option            (modupd) =    1
 saddle point option              (modsad) =    0
 initial eigen-mode to follow     (moddir) =    0
 initial variable to follow       (vardir) =    0
 follow first negative mode     (firstneg) =    T
 apply conjugacy                    (opcg) =    F
 source of zmatrix                         =   autoz   


          -------------------
          Energy Minimization
          -------------------


 Names of Z-matrix variables 
    1         

 Variables with the same non-blank name are constrained to be equal


 Using diagonal initial Hessian 
 Scaling for Hessian diagonals: bonds = 1.00  angles = 0.25  torsions = 0.10

          --------
          Step   0
          --------


                         Geometry "geometry" -> "geometry"
                         ---------------------------------

 Output coordinates in angstroms (scale by  1.889725989 to convert to a.u.)

  No.       Tag          Charge          X              Y              Z
 ---- ---------------- ---------- -------------- -------------- --------------
    1 O                    8.0000    -0.00417984     0.10784588     0.00000000
    2 H                    1.0000     0.03343868    -0.86276708     0.00000000

      Atomic Mass 
      ----------- 

      O                 15.994910
      H                  1.007825


 Effective nuclear repulsion energy (a.u.)       4.3583200974

            Nuclear Dipole moment (a.u.) 
            ----------------------------
        X                 Y               Z
 ---------------- ---------------- ----------------
    -0.0000000000     0.0000000000     0.0000000000


                                 NWChem DFT Module
                                 -----------------


                      Basis "ao basis" -> "cc-pvdz" (spherical)
                      -----
  O (Oxygen)
  ----------
            Exponent  Coefficients 
       -------------- ---------------------------------------------------------
  1 S  1.17200000E+04  0.000710
  1 S  1.75900000E+03  0.005470
  1 S  4.00800000E+02  0.027837
  1 S  1.13700000E+02  0.104800
  1 S  3.70300000E+01  0.283062
  1 S  1.32700000E+01  0.448719
  1 S  5.02500000E+00  0.270952
  1 S  1.01300000E+00  0.015458

  2 S  1.17200000E+04 -0.000160
  2 S  1.75900000E+03 -0.001263
  2 S  4.00800000E+02 -0.006267
  2 S  1.13700000E+02 -0.025716
  2 S  3.70300000E+01 -0.070924
  2 S  1.32700000E+01 -0.165411
  2 S  5.02500000E+00 -0.116955
  2 S  1.01300000E+00  0.557368

  3 S  3.02300000E-01  1.000000

  4 P  1.77000000E+01  0.043018
  4 P  3.85400000E+00  0.228913
  4 P  1.04600000E+00  0.508728

  5 P  2.75300000E-01  1.000000

  6 D  1.18500000E+00  1.000000

  H (Hydrogen)
  ------------
            Exponent  Coefficients 
       -------------- ---------------------------------------------------------
  1 S  1.30100000E+01  0.019685
  1 S  1.96200000E+00  0.137977
  1 S  4.44600000E-01  0.478148

  2 S  1.22000000E-01  1.000000

  3 P  7.27000000E-01  1.000000



 Summary of "ao basis" -> "cc-pvdz" (spherical)
 ------------------------------------------------------------------------------
       Tag                 Description            Shells   Functions and Types
 ---------------- ------------------------------  ------  ---------------------
 O                          cc-pvdz                  6       14   3s2p1d
 H                          cc-pvdz                  3        5   2s1p




 Summary of "ao basis" -> "cc-pvdz" (spherical)
 ------------------------------------------------------------------------------
       Tag                 Description            Shells   Functions and Types
 ---------------- ------------------------------  ------  ---------------------
 O                          cc-pvdz                  6       14   3s2p1d
 H                          cc-pvdz                  3        5   2s1p


  texas integral default override: limxmem =             50000000
  Caching 1-el integrals 

            General Information
            -------------------
          SCF calculation type: DFT
          Wavefunction type:  spin polarized.
          No. of atoms     :     2
          No. of electrons :     9
           Alpha electrons :     5
            Beta electrons :     4
          Charge           :     0
          Spin multiplicity:     2
          Use of symmetry is: off; symmetry adaption is: off
          Maximum number of iterations: 500
          This is a Direct SCF calculation.
          AO basis - number of functions:    19
                     number of shells:     9
          Convergence on energy requested:  1.00D-06
          Convergence on density requested:  1.00D-05
          Convergence on gradient requested:  5.00D-04

              XC Information
              --------------
          PerdewBurkeErnzerhof Exchange Functional  1.000          
            Perdew 1991 LDA Correlation Functional  1.000 local    
           PerdewBurkeErnz. Correlation Functional  1.000 non-local

             Grid Information
             ----------------
          Grid used for XC integration:  medium    
          Radial quadrature: Mura-Knowles        
          Angular quadrature: Lebedev. 
          Tag              B.-S. Rad. Rad. Pts. Rad. Cut. Ang. Pts.
          ---              ---------- --------- --------- ---------
          O                   0.60       49           5.0       434
          H                   0.35       45           5.0       434
          Grid pruning is: on 
          Number of quadrature shells:    94
          Spatial weights used:  Erf1

          Convergence Information
          -----------------------
          Convergence aids based upon iterative change in 
          total energy or number of iterations. 
          Levelshifting, if invoked, occurs when the 
          HOMO/LUMO gap drops below (HL_TOL):  1.00D-02
          DIIS, if invoked, will attempt to extrapolate 
          using up to (NFOCK): 10 stored Fock matrices.

                    Damping( 0%)  Levelshifting(0.5)       DIIS
                  --------------- ------------------- ---------------
          dE  on:    start            ASAP                start   
          dE off:    2 iters        500 iters           500 iters 


      Screening Tolerance Information
      -------------------------------
          Density screening/tol_rho:  1.00D-10
          AO Gaussian exp screening on grid/accAOfunc:  14
          CD Gaussian exp screening on grid/accCDfunc:  20
          XC Gaussian exp screening on grid/accXCfunc:  20
          Schwarz screening/accCoul:  1.00D-08


      Superposition of Atomic Density Guess
      -------------------------------------

 Sum of atomic energies:         -75.26295010

      Non-variational initial energy
      ------------------------------

 Total energy =     -75.058783
 1-e energy   =    -112.061905
 2-e energy   =      32.644802
 HOMO         =      -0.415133
 LUMO         =       0.136467

   Time after variat. SCF:      0.3
   Time prior to 1st pass:      0.3

 Grid_pts file          = ./oh-dat.gridpts.00
 Record size in doubles =  12289        No. of grid_pts per rec  =   3070
 Max. records in memory =      2        Max. recs in file   =   4694705


           Memory utilization after 1st SCF pass: 
           Heap Space remaining (MW):       13.08            13080970
          Stack Space remaining (MW):       65.54            65535700

   convergence    iter        energy       DeltaE   RMS-Dens  Diis-err    time
 ---------------- ----- ----------------- --------- --------- ---------  ------
 d= 0,ls=0.0,diis     1    -75.6297217273 -8.00D+01  9.72D-03  4.30D-02     0.5
                                                     9.90D-03  3.23D-02
 d= 0,ls=0.0,diis     2    -75.6418168157 -1.21D-02  3.91D-03  7.79D-03     0.5
                                                     3.64D-03  5.78D-03
 d= 0,ls=0.0,diis     3    -75.6442738847 -2.46D-03  1.27D-03  1.75D-03     0.6
                                                     1.34D-03  1.70D-03
 d= 0,ls=0.0,diis     4    -75.6448912617 -6.17D-04  3.54D-04  2.19D-04     0.6
                                                     2.42D-04  1.25D-04
 d= 0,ls=0.0,diis     5    -75.6449560284 -6.48D-05  1.58D-05  3.15D-08     0.7
                                                     4.07D-05  6.05D-07
 d= 0,ls=0.0,diis     6    -75.6449563202 -2.92D-07  1.06D-05  3.42D-08     0.7
                                                     4.51D-06  2.47D-09
 d= 0,ls=0.0,diis     7    -75.6449563383 -1.81D-08  9.53D-07  1.02D-10     0.7
                                                     1.78D-06  5.19D-10


         Total DFT energy =      -75.644956338333
      One electron energy =     -112.746135025594
           Coulomb energy =       41.573225955911
    Exchange-Corr. energy =       -8.830367366050
 Nuclear repulsion energy =        4.358320097400

 Numeric. integr. density =        8.999999913043

     Total iterative time =      0.4s



                    DFT Final Alpha Molecular Orbital Analysis
                    ------------------------------------------

 Vector    1  Occ=1.000000D+00  E=-1.881133D+01
              MO Center= -4.2D-03,  1.1D-01,  2.7D-14, r^2= 1.5D-02
   Bfn.  Coefficient  Atom+Function         Bfn.  Coefficient  Atom+Function  
  ----- ------------  ---------------      ----- ------------  ---------------
     1      1.003462  1 O  s          

 Vector    2  Occ=1.000000D+00  E=-9.068541D-01
              MO Center=  4.1D-03, -1.1D-01,  1.5D-11, r^2= 4.6D-01
   Bfn.  Coefficient  Atom+Function         Bfn.  Coefficient  Atom+Function  
  ----- ------------  ---------------      ----- ------------  ---------------
     2      0.468456  1 O  s                  3      0.443151  1 O  s          
    15      0.218856  2 H  s                  5     -0.122592  1 O  py         
    18      0.042190  2 H  py         

 Vector    3  Occ=1.000000D+00  E=-3.980745D-01
              MO Center= -1.7D-03,  4.4D-02,  2.8D-11, r^2= 7.0D-01
   Bfn.  Coefficient  Atom+Function         Bfn.  Coefficient  Atom+Function  
  ----- ------------  ---------------      ----- ------------  ---------------
     5      0.533668  1 O  py                15     -0.375262  2 H  s          
     3      0.357951  1 O  s                  8      0.275303  1 O  py         
     2      0.163624  1 O  s                 16     -0.085219  2 H  s          

 Vector    4  Occ=1.000000D+00  E=-3.331741D-01
              MO Center= -3.4D-03,  8.8D-02, -4.7D-11, r^2= 5.4D-01
   Bfn.  Coefficient  Atom+Function         Bfn.  Coefficient  Atom+Function  
  ----- ------------  ---------------      ----- ------------  ---------------
     4      0.484124  1 O  px                 6     -0.477418  1 O  pz         
     7      0.323889  1 O  px                 9     -0.319402  1 O  pz         

 Vector    5  Occ=1.000000D+00  E=-2.562893D-01
              MO Center= -3.3D-03,  8.6D-02,  1.1D-11, r^2= 5.7D-01
   Bfn.  Coefficient  Atom+Function         Bfn.  Coefficient  Atom+Function  
  ----- ------------  ---------------      ----- ------------  ---------------
     6      0.468154  1 O  pz                 4      0.460976  1 O  px         
     9      0.340936  1 O  pz                 7      0.335708  1 O  px         
    19      0.025069  2 H  pz         

 Vector    6  Occ=0.000000D+00  E= 3.750225D-02
              MO Center=  3.9D-02, -1.0D+00,  1.9D-12, r^2= 2.0D+00
   Bfn.  Coefficient  Atom+Function         Bfn.  Coefficient  Atom+Function  
  ----- ------------  ---------------      ----- ------------  ---------------
    16      1.257679  2 H  s                  3     -0.694268  1 O  s          
     8      0.403034  1 O  py                 5      0.320527  1 O  py         
    15      0.199580  2 H  s                  2     -0.128065  1 O  s          

 Vector    7  Occ=0.000000D+00  E= 5.131827D-01
              MO Center=  3.1D-02, -8.0D-01, -3.3D-13, r^2= 1.3D+00
   Bfn.  Coefficient  Atom+Function         Bfn.  Coefficient  Atom+Function  
  ----- ------------  ---------------      ----- ------------  ---------------
    15      1.258213  2 H  s                 16     -1.033379  2 H  s          
     5      0.417661  1 O  py                18     -0.237618  2 H  py         
     3      0.178104  1 O  s                  8      0.116214  1 O  py         
     2     -0.092936  1 O  s                 14     -0.090168  1 O  d  2       
    12     -0.052116  1 O  d  0       

 Vector    8  Occ=0.000000D+00  E= 7.949108D-01
              MO Center= -3.0D-03,  7.7D-02,  4.5D-11, r^2= 1.1D+00
   Bfn.  Coefficient  Atom+Function         Bfn.  Coefficient  Atom+Function  
  ----- ------------  ---------------      ----- ------------  ---------------
     7      0.732980  1 O  px                 9     -0.722826  1 O  pz         
     4     -0.664382  1 O  px                 6      0.655178  1 O  pz         
    17      0.044927  2 H  px                19     -0.044305  2 H  pz         
     8      0.028408  1 O  py                 5     -0.025750  1 O  py         

 Vector    9  Occ=0.000000D+00  E= 8.455591D-01
              MO Center= -2.9D-03,  7.4D-02, -1.4D-11, r^2= 1.1D+00
   Bfn.  Coefficient  Atom+Function         Bfn.  Coefficient  Atom+Function  
  ----- ------------  ---------------      ----- ------------  ---------------
     9     -0.722973  1 O  pz                 7     -0.711888  1 O  px         
     6      0.676344  1 O  pz                 4      0.665974  1 O  px         
    19     -0.049584  2 H  pz                17     -0.048824  2 H  px         
     8     -0.027591  1 O  py                 5      0.025811  1 O  py         

 Vector   10  Occ=0.000000D+00  E= 8.573366D-01
              MO Center= -2.2D-02,  5.8D-01, -2.0D-11, r^2= 1.1D+00
   Bfn.  Coefficient  Atom+Function         Bfn.  Coefficient  Atom+Function  
  ----- ------------  ---------------      ----- ------------  ---------------
     8      1.504558  1 O  py                15      0.804530  2 H  s          
     5     -0.700514  1 O  py                 3     -0.363279  1 O  s          
     2     -0.281585  1 O  s                 18      0.268879  2 H  py         
    16      0.235927  2 H  s                  1     -0.075227  1 O  s          
     7     -0.058313  1 O  px                 4      0.027150  1 O  px         

 Vector   11  Occ=0.000000D+00  E= 1.221922D+00
              MO Center=  2.5D-02, -6.5D-01,  1.6D-11, r^2= 7.9D-01
   Bfn.  Coefficient  Atom+Function         Bfn.  Coefficient  Atom+Function  
  ----- ------------  ---------------      ----- ------------  ---------------
    17      0.714108  2 H  px                19     -0.704215  2 H  pz         
     7     -0.332444  1 O  px                 9      0.327838  1 O  pz         
    10     -0.122875  1 O  d -2              11      0.121355  1 O  d -1       
    18      0.027677  2 H  py                 4      0.025779  1 O  px         
     6     -0.025421  1 O  pz         

 Vector   12  Occ=0.000000D+00  E= 1.241670D+00
              MO Center=  2.5D-02, -6.5D-01, -2.0D-11, r^2= 7.9D-01
   Bfn.  Coefficient  Atom+Function         Bfn.  Coefficient  Atom+Function  
  ----- ------------  ---------------      ----- ------------  ---------------
    19      0.718407  2 H  pz                17      0.707391  2 H  px         
     9     -0.340102  1 O  pz                 7     -0.334888  1 O  px         
    11     -0.115252  1 O  d -1              10     -0.113315  1 O  d -2       
     6      0.029355  1 O  pz                 4      0.028905  1 O  px         
    18      0.027417  2 H  py         

 Vector   13  Occ=0.000000D+00  E= 1.325411D+00
              MO Center=  7.8D-03, -2.0D-01, -9.3D-12, r^2= 1.3D+00
   Bfn.  Coefficient  Atom+Function         Bfn.  Coefficient  Atom+Function  
  ----- ------------  ---------------      ----- ------------  ---------------
     3      2.467006  1 O  s                  2     -1.657581  1 O  s          
    16     -0.800698  2 H  s                  8     -0.759199  1 O  py         
     1     -0.715043  1 O  s                 15     -0.556398  2 H  s          
    18     -0.292373  2 H  py                14      0.052394  1 O  d  2       
    12      0.030337  1 O  d  0               7      0.029425  1 O  px         

 Vector   14  Occ=0.000000D+00  E= 1.982898D+00
              MO Center=  2.8D-02, -7.3D-01, -7.1D-13, r^2= 6.7D-01
   Bfn.  Coefficient  Atom+Function         Bfn.  Coefficient  Atom+Function  
  ----- ------------  ---------------      ----- ------------  ---------------
    18      1.293981  2 H  py                 5      0.699922  1 O  py         
     3     -0.610683  1 O  s                 15      0.460580  2 H  s          
     2     -0.417493  1 O  s                 16      0.361342  2 H  s          
     8      0.161994  1 O  py                 1     -0.154598  1 O  s          
    14     -0.150039  1 O  d  2              12     -0.086232  1 O  d  0       

 Vector   15  Occ=0.000000D+00  E= 2.454243D+00
              MO Center= -4.2D-03,  1.1D-01, -2.3D-12, r^2= 4.1D-01
   Bfn.  Coefficient  Atom+Function         Bfn.  Coefficient  Atom+Function  
  ----- ------------  ---------------      ----- ------------  ---------------
    12      0.865932  1 O  d  0              14     -0.498446  1 O  d  2       
    10     -0.038695  1 O  d -2       

 Vector   16  Occ=0.000000D+00  E= 2.455066D+00
              MO Center= -4.1D-03,  1.1D-01, -1.5D-12, r^2= 4.2D-01
   Bfn.  Coefficient  Atom+Function         Bfn.  Coefficient  Atom+Function  
  ----- ------------  ---------------      ----- ------------  ---------------
    13      0.997865  1 O  d  1              18      0.079828  2 H  py         
     3     -0.079322  1 O  s                 15      0.073516  2 H  s          
     8      0.046632  1 O  py                11     -0.038675  1 O  d -1       
     5      0.034358  1 O  py                14      0.029637  1 O  d  2       

 Vector   17  Occ=0.000000D+00  E= 2.760490D+00
              MO Center=  5.2D-04, -1.3D-02, -2.1D-12, r^2= 6.0D-01
   Bfn.  Coefficient  Atom+Function         Bfn.  Coefficient  Atom+Function  
  ----- ------------  ---------------      ----- ------------  ---------------
    10      0.743499  1 O  d -2              11     -0.734302  1 O  d -1       
    17      0.396260  2 H  px                19     -0.390771  2 H  pz         
     7     -0.156369  1 O  px                 9      0.154202  1 O  pz         
    14     -0.057719  1 O  d  2              13     -0.028460  1 O  d  1       

 Vector   18  Occ=0.000000D+00  E= 2.817319D+00
              MO Center=  2.5D-04, -6.5D-03,  7.1D-13, r^2= 5.9D-01
   Bfn.  Coefficient  Atom+Function         Bfn.  Coefficient  Atom+Function  
  ----- ------------  ---------------      ----- ------------  ---------------
    11      0.746451  1 O  d -1              10      0.733902  1 O  d -2       
    19      0.388933  2 H  pz                17      0.382970  2 H  px         
     9     -0.153963  1 O  pz                 7     -0.151602  1 O  px         
    14     -0.056974  1 O  d  2              13      0.028931  1 O  d  1       

 Vector   19  Occ=0.000000D+00  E= 3.487733D+00
              MO Center=  1.4D-04, -3.7D-03, -3.0D-13, r^2= 7.9D-01
   Bfn.  Coefficient  Atom+Function         Bfn.  Coefficient  Atom+Function  
  ----- ------------  ---------------      ----- ------------  ---------------
     3      1.567568  1 O  s                 15     -1.575235  2 H  s          
    18     -1.112555  2 H  py                14     -1.081072  1 O  d  2       
     8     -1.043196  1 O  py                12     -0.626488  1 O  d  0       
     5     -0.393622  1 O  py                16     -0.333892  2 H  s          
     2     -0.161181  1 O  s                  1     -0.117265  1 O  s          


                     DFT Final Beta Molecular Orbital Analysis
                     -----------------------------------------

 Vector    1  Occ=1.000000D+00  E=-1.878858D+01
              MO Center= -4.2D-03,  1.1D-01,  2.4D-14, r^2= 1.5D-02
   Bfn.  Coefficient  Atom+Function         Bfn.  Coefficient  Atom+Function  
  ----- ------------  ---------------      ----- ------------  ---------------
     1      1.003107  1 O  s          

 Vector    2  Occ=1.000000D+00  E=-8.496582D-01
              MO Center=  5.2D-03, -1.3D-01,  9.5D-12, r^2= 4.7D-01
   Bfn.  Coefficient  Atom+Function         Bfn.  Coefficient  Atom+Function  
  ----- ------------  ---------------      ----- ------------  ---------------
     2      0.446559  1 O  s                  3      0.433206  1 O  s          
    15      0.249298  2 H  s                  5     -0.128432  1 O  py         
    18      0.044094  2 H  py                16      0.028760  2 H  s          

 Vector    3  Occ=1.000000D+00  E=-3.742003D-01
              MO Center= -2.3D-03,  5.8D-02,  4.0D-12, r^2= 7.2D-01
   Bfn.  Coefficient  Atom+Function         Bfn.  Coefficient  Atom+Function  
  ----- ------------  ---------------      ----- ------------  ---------------
     5      0.517846  1 O  py                 3      0.386177  1 O  s          
    15     -0.381346  2 H  s                  8      0.274875  1 O  py         
     2      0.171426  1 O  s                 16     -0.091210  2 H  s          

 Vector    4  Occ=1.000000D+00  E=-2.322788D-01
              MO Center= -3.3D-03,  8.5D-02,  9.0D-12, r^2= 5.8D-01
   Bfn.  Coefficient  Atom+Function         Bfn.  Coefficient  Atom+Function  
  ----- ------------  ---------------      ----- ------------  ---------------
     6      0.461817  1 O  pz                 4      0.454725  1 O  px         
     9      0.347114  1 O  pz                 7      0.341784  1 O  px         
    19      0.026937  2 H  pz                17      0.026523  2 H  px         

 Vector    5  Occ=0.000000D+00  E=-2.022215D-01
              MO Center= -3.3D-03,  8.5D-02, -1.8D-11, r^2= 6.0D-01
   Bfn.  Coefficient  Atom+Function         Bfn.  Coefficient  Atom+Function  
  ----- ------------  ---------------      ----- ------------  ---------------
     4      0.448794  1 O  px                 6     -0.442566  1 O  pz         
     7      0.359631  1 O  px                 9     -0.354639  1 O  pz         
    17      0.029061  2 H  px                19     -0.028658  2 H  pz         

 Vector    6  Occ=0.000000D+00  E= 4.725646D-02
              MO Center=  3.9D-02, -1.0D+00,  6.8D-12, r^2= 2.0D+00
   Bfn.  Coefficient  Atom+Function         Bfn.  Coefficient  Atom+Function  
  ----- ------------  ---------------      ----- ------------  ---------------
    16      1.271807  2 H  s                  3     -0.717218  1 O  s          
     8      0.410790  1 O  py                 5      0.320582  1 O  py         
    15      0.181133  2 H  s                  2     -0.118592  1 O  s          

 Vector    7  Occ=0.000000D+00  E= 5.201952D-01
              MO Center=  3.1D-02, -8.0D-01, -6.7D-12, r^2= 1.3D+00
   Bfn.  Coefficient  Atom+Function         Bfn.  Coefficient  Atom+Function  
  ----- ------------  ---------------      ----- ------------  ---------------
    15      1.254200  2 H  s                 16     -1.023680  2 H  s          
     5      0.420538  1 O  py                18     -0.246469  2 H  py         
     3      0.173172  1 O  s                  8      0.125694  1 O  py         
     2     -0.099764  1 O  s                 14     -0.086802  1 O  d  2       
    12     -0.050312  1 O  d  0       

 Vector    8  Occ=0.000000D+00  E= 8.621784D-01
              MO Center= -2.8D-03,  7.1D-02,  1.8D-11, r^2= 1.1D+00
   Bfn.  Coefficient  Atom+Function         Bfn.  Coefficient  Atom+Function  
  ----- ------------  ---------------      ----- ------------  ---------------
     9     -0.717522  1 O  pz                 7     -0.706489  1 O  px         
     6      0.680542  1 O  pz                 4      0.670077  1 O  px         
    19     -0.054013  2 H  pz                17     -0.053182  2 H  px         
     8     -0.027382  1 O  py                 5      0.025971  1 O  py         

 Vector    9  Occ=0.000000D+00  E= 8.746183D-01
              MO Center= -2.2D-02,  5.7D-01,  1.4D-11, r^2= 1.1D+00
   Bfn.  Coefficient  Atom+Function         Bfn.  Coefficient  Atom+Function  
  ----- ------------  ---------------      ----- ------------  ---------------
     8      1.513004  1 O  py                15      0.814371  2 H  s          
     5     -0.702841  1 O  py                 3     -0.395731  1 O  s          
    18      0.276773  2 H  py                 2     -0.273128  1 O  s          
    16      0.246730  2 H  s                  1     -0.069380  1 O  s          
     7     -0.058640  1 O  px                 4      0.027240  1 O  px         

 Vector   10  Occ=0.000000D+00  E= 8.877634D-01
              MO Center= -2.7D-03,  6.8D-02, -2.8D-11, r^2= 1.1D+00
   Bfn.  Coefficient  Atom+Function         Bfn.  Coefficient  Atom+Function  
  ----- ------------  ---------------      ----- ------------  ---------------
     7     -0.708218  1 O  px                 9      0.698375  1 O  pz         
     4      0.688265  1 O  px                 6     -0.678700  1 O  pz         
    17     -0.057950  2 H  px                19      0.057144  2 H  pz         
     8     -0.027449  1 O  py                 5      0.026675  1 O  py         

 Vector   11  Occ=0.000000D+00  E= 1.240481D+00
              MO Center=  2.5D-02, -6.5D-01, -1.6D-11, r^2= 8.0D-01
   Bfn.  Coefficient  Atom+Function         Bfn.  Coefficient  Atom+Function  
  ----- ------------  ---------------      ----- ------------  ---------------
    19      0.719317  2 H  pz                17      0.708401  2 H  px         
     9     -0.345633  1 O  pz                 7     -0.340389  1 O  px         
    11     -0.112661  1 O  d -1              10     -0.110784  1 O  d -2       
     6      0.033155  1 O  pz                 4      0.032653  1 O  px         
    18      0.027456  2 H  py         

 Vector   12  Occ=0.000000D+00  E= 1.240545D+00
              MO Center=  2.5D-02, -6.5D-01,  3.0D-11, r^2= 8.1D-01
   Bfn.  Coefficient  Atom+Function         Bfn.  Coefficient  Atom+Function  
  ----- ------------  ---------------      ----- ------------  ---------------
    17      0.719098  2 H  px                19     -0.709249  2 H  pz         
     7     -0.350545  1 O  px                 9      0.345743  1 O  pz         
    10     -0.111029  1 O  d -2              11      0.109674  1 O  d -1       
     4      0.037472  1 O  px                 6     -0.036958  1 O  pz         
    18      0.027870  2 H  py         

 Vector   13  Occ=0.000000D+00  E= 1.369839D+00
              MO Center=  7.3D-03, -1.9D-01, -1.9D-11, r^2= 1.3D+00
   Bfn.  Coefficient  Atom+Function         Bfn.  Coefficient  Atom+Function  
  ----- ------------  ---------------      ----- ------------  ---------------
     3      2.459069  1 O  s                  2     -1.656060  1 O  s          
    16     -0.791303  2 H  s                  8     -0.744810  1 O  py         
     1     -0.713148  1 O  s                 15     -0.552899  2 H  s          
    18     -0.304339  2 H  py                14      0.058181  1 O  d  2       
    12      0.033645  1 O  d  0               7      0.028867  1 O  px         

 Vector   14  Occ=0.000000D+00  E= 1.999667D+00
              MO Center=  2.8D-02, -7.3D-01, -1.3D-12, r^2= 6.6D-01
   Bfn.  Coefficient  Atom+Function         Bfn.  Coefficient  Atom+Function  
  ----- ------------  ---------------      ----- ------------  ---------------
    18      1.301497  2 H  py                 5      0.709824  1 O  py         
     3     -0.603050  1 O  s                 15      0.481991  2 H  s          
     2     -0.444569  1 O  s                 16      0.354092  2 H  s          
     8      0.167249  1 O  py                 1     -0.163452  1 O  s          
    14     -0.136925  1 O  d  2              12     -0.079559  1 O  d  0       

 Vector   15  Occ=0.000000D+00  E= 2.533869D+00
              MO Center= -4.2D-03,  1.1D-01, -1.3D-12, r^2= 4.1D-01
   Bfn.  Coefficient  Atom+Function         Bfn.  Coefficient  Atom+Function  
  ----- ------------  ---------------      ----- ------------  ---------------
    12      0.865932  1 O  d  0              14     -0.498446  1 O  d  2       
    10     -0.038695  1 O  d -2       

 Vector   16  Occ=0.000000D+00  E= 2.553166D+00
              MO Center= -4.2D-03,  1.1D-01, -7.4D-13, r^2= 4.1D-01
   Bfn.  Coefficient  Atom+Function         Bfn.  Coefficient  Atom+Function  
  ----- ------------  ---------------      ----- ------------  ---------------
    13      0.998928  1 O  d  1              11     -0.038716  1 O  d -1       
    18     -0.032020  2 H  py                15     -0.029309  2 H  s          
     3      0.025203  1 O  s          

 Vector   17  Occ=0.000000D+00  E= 2.828737D+00
              MO Center=  1.8D-04, -4.6D-03,  3.5D-13, r^2= 5.9D-01
   Bfn.  Coefficient  Atom+Function         Bfn.  Coefficient  Atom+Function  
  ----- ------------  ---------------      ----- ------------  ---------------
    11      0.746855  1 O  d -1              10      0.734302  1 O  d -2       
    19      0.386422  2 H  pz                17      0.380498  2 H  px         
     9     -0.153361  1 O  pz                 7     -0.151010  1 O  px         
    14     -0.057005  1 O  d  2              13      0.028946  1 O  d  1       

 Vector   18  Occ=0.000000D+00  E= 2.838726D+00
              MO Center=  1.6D-04, -4.2D-03, -1.6D-12, r^2= 5.8D-01
   Bfn.  Coefficient  Atom+Function         Bfn.  Coefficient  Atom+Function  
  ----- ------------  ---------------      ----- ------------  ---------------
    10      0.745398  1 O  d -2              11     -0.736180  1 O  d -1       
    17      0.384802  2 H  px                19     -0.379473  2 H  pz         
     7     -0.152814  1 O  px                 9      0.150698  1 O  pz         
    14     -0.057866  1 O  d  2              13     -0.028532  1 O  d  1       

 Vector   19  Occ=0.000000D+00  E= 3.518062D+00
              MO Center= -1.0D-04,  2.6D-03,  2.9D-13, r^2= 7.8D-01
   Bfn.  Coefficient  Atom+Function         Bfn.  Coefficient  Atom+Function  
  ----- ------------  ---------------      ----- ------------  ---------------
     3      1.563240  1 O  s                 15     -1.565864  2 H  s          
    18     -1.098999  2 H  py                14     -1.083282  1 O  d  2       
     8     -1.037433  1 O  py                12     -0.627122  1 O  d  0       
     5     -0.389780  1 O  py                16     -0.331056  2 H  s          
     2     -0.176532  1 O  s                  1     -0.121980  1 O  s          


   alpha - beta orbital overlaps 
   ----------------------------- 


   alpha      1      2      3      4      5      6      7      8      9     10
    beta      1      2      3      5      4      6      7     10      8      9
 overlap   1.000  0.999  0.999  0.999  1.000  1.000  1.000  0.998  1.000  1.000


   alpha     11     12     13     14     15     16     17     18     19
    beta     12     11     13     14     15     16     18     17     19
 overlap   1.000  1.000  1.000  0.998  1.000  0.997  1.000  1.000  0.999

     --------------------------
     Expectation value of S2:  
     --------------------------
      <S2> =      0.7515 (Exact =     0.7500)


 center of mass
 --------------
 x =  -0.00368501 y =   0.09507872 z =   0.00000000

 moments of inertia (a.u.)
 ------------------
           3.189612944753           0.123621384939           0.000000000000
           0.123621384939           0.004791254324           0.000000000000
           0.000000000000           0.000000000000           3.194404199078

     Multipole analysis of the density
     ---------------------------------

     L   x y z        total         alpha         beta         nuclear
     -   - - -        -----         -----         ----         -------
     0   0 0 0     -0.000000     -5.000000     -4.000000      9.000000

     1   1 0 0      0.024736      0.016144      0.008592     -0.000000
     1   0 1 0     -0.638225     -0.416533     -0.221692      0.000000
     1   0 0 1     -0.000000     -0.000000     -0.000000      0.000000

     2   2 0 0     -4.263489     -2.505144     -1.762838      0.004492
     2   1 1 0     -0.036789      0.031363      0.047751     -0.115903
     2   1 0 1     -0.417378     -0.007062     -0.410317      0.000000
     2   0 2 0     -3.315715     -3.313146     -2.993025      2.990455
     2   0 1 1     -0.016177     -0.000274     -0.015903      0.000000
     2   0 0 2     -4.277216     -2.504136     -1.773080      0.000000


            General Information
            -------------------
          SCF calculation type: DFT
          Wavefunction type:  spin polarized.
          No. of atoms     :     2
          No. of electrons :     9
           Alpha electrons :     5
            Beta electrons :     4
          Charge           :     0
          Spin multiplicity:     2
          Use of symmetry is: off; symmetry adaption is: off
          Maximum number of iterations: 500
          This is a Direct SCF calculation.
          AO basis - number of functions:    19
                     number of shells:     9
          Convergence on energy requested:  1.00D-06
          Convergence on density requested:  1.00D-05
          Convergence on gradient requested:  5.00D-04

              XC Information
              --------------
          PerdewBurkeErnzerhof Exchange Functional  1.000          
            Perdew 1991 LDA Correlation Functional  1.000 local    
           PerdewBurkeErnz. Correlation Functional  1.000 non-local

             Grid Information
             ----------------
          Grid used for XC integration:  medium    
          Radial quadrature: Mura-Knowles        
          Angular quadrature: Lebedev. 
          Tag              B.-S. Rad. Rad. Pts. Rad. Cut. Ang. Pts.
          ---              ---------- --------- --------- ---------
          O                   0.60       49           5.0       434
          H                   0.35       45           5.0       434
          Grid pruning is: on 
          Number of quadrature shells:    94
          Spatial weights used:  Erf1

          Convergence Information
          -----------------------
          Convergence aids based upon iterative change in 
          total energy or number of iterations. 
          Levelshifting, if invoked, occurs when the 
          HOMO/LUMO gap drops below (HL_TOL):  1.00D-02
          DIIS, if invoked, will attempt to extrapolate 
          using up to (NFOCK): 10 stored Fock matrices.

                    Damping( 0%)  Levelshifting(0.5)       DIIS
                  --------------- ------------------- ---------------
          dE  on:    start            ASAP                start   
          dE off:    2 iters        500 iters           500 iters 


      Screening Tolerance Information
      -------------------------------
          Density screening/tol_rho:  1.00D-10
          AO Gaussian exp screening on grid/accAOfunc:  14
          CD Gaussian exp screening on grid/accCDfunc:  20
          XC Gaussian exp screening on grid/accXCfunc:  20
          Schwarz screening/accCoul:  1.00D-08

  texas integral default override: limxmem =             50000000
  texas integral default override: limxmem =             50000000


                            NWChem DFT Gradient Module
                            --------------------------



  charge          =   0.00
  wavefunction    = open shell

  texas integral default override: limxmem =             50000000
  texas integral default override: limxmem =             50000000


                         DFT ENERGY GRADIENTS

    atom               coordinates                        gradient
                 x          y          z           x          y          z
   1 O      -0.007899   0.203799   0.000000    0.000754  -0.019451  -0.000000
   2 H       0.063190  -1.630393   0.000000   -0.000754   0.019451   0.000000

                 ----------------------------------------
                 |  Time  |  1-e(secs)   |  2-e(secs)   |
                 ----------------------------------------
                 |  CPU   |       0.00   |       0.02   |
                 ----------------------------------------
                 |  WALL  |       0.00   |       0.02   |
                 ----------------------------------------
  no constraints, skipping    0.0000000000000000     

@ Step       Energy      Delta E   Gmax     Grms     Xrms     Xmax   Walltime
@ ---- ---------------- -------- -------- -------- -------- -------- --------
@    0     -75.64495634  0.0D+00  0.01947  0.01947  0.00000  0.00000      0.9
                                                                    



                                Z-matrix (autoz)
                                -------- 

 Units are Angstrom for bonds and degrees for angles

      Type          Name      I     J     K     L     M      Value     Gradient
      ----------- --------  ----- ----- ----- ----- ----- ---------- ----------
    1 Stretch                  1     2                       0.97134   -0.01947

  no constraints, skipping    0.0000000000000000     
  no constraints, skipping    0.0000000000000000     
  no constraints, skipping    0.0000000000000000     

                                 NWChem DFT Module
                                 -----------------




 Summary of "ao basis" -> "cc-pvdz" (spherical)
 ------------------------------------------------------------------------------
       Tag                 Description            Shells   Functions and Types
 ---------------- ------------------------------  ------  ---------------------
 O                          cc-pvdz                  6       14   3s2p1d
 H                          cc-pvdz                  3        5   2s1p


  texas integral default override: limxmem =             50000000
  Caching 1-el integrals 

            General Information
            -------------------
          SCF calculation type: DFT
          Wavefunction type:  spin polarized.
          No. of atoms     :     2
          No. of electrons :     9
           Alpha electrons :     5
            Beta electrons :     4
          Charge           :     0
          Spin multiplicity:     2
          Use of symmetry is: off; symmetry adaption is: off
          Maximum number of iterations: 500
          This is a Direct SCF calculation.
          AO basis - number of functions:    19
                     number of shells:     9
          Convergence on energy requested:  1.00D-06
          Convergence on density requested:  1.00D-05
          Convergence on gradient requested:  5.00D-04

              XC Information
              --------------
          PerdewBurkeErnzerhof Exchange Functional  1.000          
            Perdew 1991 LDA Correlation Functional  1.000 local    
           PerdewBurkeErnz. Correlation Functional  1.000 non-local

             Grid Information
             ----------------
          Grid used for XC integration:  medium    
          Radial quadrature: Mura-Knowles        
          Angular quadrature: Lebedev. 
          Tag              B.-S. Rad. Rad. Pts. Rad. Cut. Ang. Pts.
          ---              ---------- --------- --------- ---------
          O                   0.60       49           5.0       434
          H                   0.35       45           5.0       434
          Grid pruning is: on 
          Number of quadrature shells:    94
          Spatial weights used:  Erf1

          Convergence Information
          -----------------------
          Convergence aids based upon iterative change in 
          total energy or number of iterations. 
          Levelshifting, if invoked, occurs when the 
          HOMO/LUMO gap drops below (HL_TOL):  1.00D-02
          DIIS, if invoked, will attempt to extrapolate 
          using up to (NFOCK): 10 stored Fock matrices.

                    Damping( 0%)  Levelshifting(0.5)       DIIS
                  --------------- ------------------- ---------------
          dE  on:    start            ASAP                start   
          dE off:    2 iters        500 iters           500 iters 


      Screening Tolerance Information
      -------------------------------
          Density screening/tol_rho:  1.00D-10
          AO Gaussian exp screening on grid/accAOfunc:  14
          CD Gaussian exp screening on grid/accCDfunc:  20
          XC Gaussian exp screening on grid/accXCfunc:  20
          Schwarz screening/accCoul:  1.00D-08


 Loading old vectors from job with title :



   Time after variat. SCF:      1.0
   Time prior to 1st pass:      1.0

 Grid_pts file          = ./oh-dat.gridpts.00
 Record size in doubles =  12289        No. of grid_pts per rec  =   3070
 Max. records in memory =      2        Max. recs in file   =   4694705


           Memory utilization after 1st SCF pass: 
           Heap Space remaining (MW):       13.08            13080970
          Stack Space remaining (MW):       65.54            65535700

   convergence    iter        energy       DeltaE   RMS-Dens  Diis-err    time
 ---------------- ----- ----------------- --------- --------- ---------  ------
 d= 0,ls=0.0,diis     1    -75.6450493054 -7.99D+01  1.15D-03  4.17D-04     1.1
                                                     1.19D-03  4.00D-04
 d= 0,ls=0.0,diis     2    -75.6452758150 -2.27D-04  3.18D-04  5.71D-05     1.2
                                                     2.74D-04  4.27D-05
 d= 0,ls=0.0,diis     3    -75.6452823597 -6.54D-06  1.57D-04  3.72D-05     1.2
                                                     1.49D-04  3.06D-05
 d= 0,ls=0.0,diis     4    -75.6452952132 -1.29D-05  2.50D-05  5.68D-07     1.3
                                                     2.15D-05  3.89D-07
 d= 0,ls=0.0,diis     5    -75.6452954230 -2.10D-07  8.29D-07  2.33D-09     1.3
                                                     2.70D-06  3.85D-09


         Total DFT energy =      -75.645295422964
      One electron energy =     -112.520552725060
           Coulomb energy =       41.461628815317
    Exchange-Corr. energy =       -8.817316384185
 Nuclear repulsion energy =        4.230944870964

 Numeric. integr. density =        9.000000003509

     Total iterative time =      0.3s



                    DFT Final Alpha Molecular Orbital Analysis
                    ------------------------------------------

 Vector    1  Occ=1.000000D+00  E=-1.881345D+01
              MO Center= -4.7D-03,  1.2D-01,  8.1D-16, r^2= 1.5D-02
   Bfn.  Coefficient  Atom+Function         Bfn.  Coefficient  Atom+Function  
  ----- ------------  ---------------      ----- ------------  ---------------
     1      1.003419  1 O  s          

 Vector    2  Occ=1.000000D+00  E=-8.995084D-01
              MO Center=  3.1D-03, -8.1D-02,  2.7D-13, r^2= 4.6D-01
   Bfn.  Coefficient  Atom+Function         Bfn.  Coefficient  Atom+Function  
  ----- ------------  ---------------      ----- ------------  ---------------
     2      0.471673  1 O  s                  3      0.456013  1 O  s          
    15      0.204511  2 H  s                  5     -0.116534  1 O  py         
    18      0.039847  2 H  py         

 Vector    3  Occ=1.000000D+00  E=-3.953012D-01
              MO Center= -1.4D-03,  3.5D-02,  3.9D-13, r^2= 7.3D-01
   Bfn.  Coefficient  Atom+Function         Bfn.  Coefficient  Atom+Function  
  ----- ------------  ---------------      ----- ------------  ---------------
     5      0.531845  1 O  py                15     -0.374743  2 H  s          
     3      0.345966  1 O  s                  8      0.278352  1 O  py         
     2      0.158454  1 O  s                 16     -0.094056  2 H  s          
    18     -0.026019  2 H  py         

 Vector    4  Occ=1.000000D+00  E=-3.320849D-01
              MO Center= -4.0D-03,  1.0D-01, -1.5D-12, r^2= 5.4D-01
   Bfn.  Coefficient  Atom+Function         Bfn.  Coefficient  Atom+Function  
  ----- ------------  ---------------      ----- ------------  ---------------
     4      0.484505  1 O  px                 6     -0.477745  1 O  pz         
     7      0.324319  1 O  px                 9     -0.319793  1 O  pz         

 Vector    5  Occ=1.000000D+00  E=-2.551658D-01
              MO Center= -3.9D-03,  1.0D-01,  1.3D-12, r^2= 5.7D-01
   Bfn.  Coefficient  Atom+Function         Bfn.  Coefficient  Atom+Function  
  ----- ------------  ---------------      ----- ------------  ---------------
     6      0.468532  1 O  pz                 4      0.461302  1 O  px         
     9      0.341446  1 O  pz                 7      0.336177  1 O  px         

 Vector    6  Occ=0.000000D+00  E= 2.936030D-02
              MO Center=  3.8D-02, -9.9D-01, -1.6D-13, r^2= 1.9D+00
   Bfn.  Coefficient  Atom+Function         Bfn.  Coefficient  Atom+Function  
  ----- ------------  ---------------      ----- ------------  ---------------
    16      1.215450  2 H  s                  3     -0.663778  1 O  s          
     8      0.411175  1 O  py                 5      0.335941  1 O  py         
    15      0.221783  2 H  s                  2     -0.127332  1 O  s          

 Vector    7  Occ=0.000000D+00  E= 4.934347D-01
              MO Center=  3.2D-02, -8.2D-01, -1.2D-12, r^2= 1.4D+00
   Bfn.  Coefficient  Atom+Function         Bfn.  Coefficient  Atom+Function  
  ----- ------------  ---------------      ----- ------------  ---------------
    15      1.258031  2 H  s                 16     -1.074538  2 H  s          
     5      0.407729  1 O  py                18     -0.213931  2 H  py         
     3      0.203770  1 O  s                  8      0.095328  1 O  py         
     2     -0.092047  1 O  s                 14     -0.085292  1 O  d  2       
    12     -0.049299  1 O  d  0               1     -0.025562  1 O  s          

 Vector    8  Occ=0.000000D+00  E= 7.938306D-01
              MO Center= -3.1D-03,  8.0D-02,  3.1D-12, r^2= 1.1D+00
   Bfn.  Coefficient  Atom+Function         Bfn.  Coefficient  Atom+Function  
  ----- ------------  ---------------      ----- ------------  ---------------
     7     -0.726772  1 O  px                 9      0.716631  1 O  pz         
     4      0.662930  1 O  px                 6     -0.653680  1 O  pz         
    17     -0.059461  2 H  px                19      0.058631  2 H  pz         
     8     -0.028168  1 O  py                 5      0.025694  1 O  py         

 Vector    9  Occ=0.000000D+00  E= 8.442875D-01
              MO Center= -2.9D-03,  7.5D-02,  1.1D-11, r^2= 1.1D+00
   Bfn.  Coefficient  Atom+Function         Bfn.  Coefficient  Atom+Function  
  ----- ------------  ---------------      ----- ------------  ---------------
     9     -0.715723  1 O  pz                 7     -0.704678  1 O  px         
     6      0.674657  1 O  pz                 4      0.664245  1 O  px         
    19     -0.066079  2 H  pz                17     -0.065059  2 H  px         
     8     -0.027312  1 O  py                 5      0.025744  1 O  py         

 Vector   10  Occ=0.000000D+00  E= 8.620041D-01
              MO Center= -2.3D-02,  5.9D-01, -1.3D-11, r^2= 1.1D+00
   Bfn.  Coefficient  Atom+Function         Bfn.  Coefficient  Atom+Function  
  ----- ------------  ---------------      ----- ------------  ---------------
     8      1.483521  1 O  py                15      0.770244  2 H  s          
     5     -0.712827  1 O  py                 3     -0.304933  1 O  s          
     2     -0.292756  1 O  s                 18      0.274558  2 H  py         
    16      0.217640  2 H  s                  1     -0.079882  1 O  s          
     7     -0.057498  1 O  px                 4      0.027627  1 O  px         

 Vector   11  Occ=0.000000D+00  E= 1.219648D+00
              MO Center=  2.5D-02, -6.6D-01,  1.7D-11, r^2= 8.1D-01
   Bfn.  Coefficient  Atom+Function         Bfn.  Coefficient  Atom+Function  
  ----- ------------  ---------------      ----- ------------  ---------------
    17      0.710362  2 H  px                19     -0.700450  2 H  pz         
     7     -0.338646  1 O  px                 9      0.333921  1 O  pz         
    10     -0.124547  1 O  d -2              11      0.122994  1 O  d -1       
     4      0.048005  1 O  px                 6     -0.047336  1 O  pz         
    18      0.027532  2 H  py         

 Vector   12  Occ=0.000000D+00  E= 1.238514D+00
              MO Center=  2.5D-02, -6.6D-01, -2.0D-11, r^2= 8.1D-01
   Bfn.  Coefficient  Atom+Function         Bfn.  Coefficient  Atom+Function  
  ----- ------------  ---------------      ----- ------------  ---------------
    19      0.714165  2 H  pz                17      0.703144  2 H  px         
     9     -0.347922  1 O  pz                 7     -0.342553  1 O  px         
    11     -0.117025  1 O  d -1              10     -0.115046  1 O  d -2       
     6      0.053621  1 O  pz                 4      0.052793  1 O  px         
    18      0.027252  2 H  py         

 Vector   13  Occ=0.000000D+00  E= 1.322692D+00
              MO Center=  7.3D-03, -1.9D-01,  3.5D-12, r^2= 1.3D+00
   Bfn.  Coefficient  Atom+Function         Bfn.  Coefficient  Atom+Function  
  ----- ------------  ---------------      ----- ------------  ---------------
     3      2.408040  1 O  s                  2     -1.664462  1 O  s          
    16     -0.768666  2 H  s                  8     -0.756786  1 O  py         
     1     -0.717444  1 O  s                 15     -0.523965  2 H  s          
    18     -0.272495  2 H  py                 5      0.061840  1 O  py         
    14      0.056861  1 O  d  2              12      0.032927  1 O  d  0       

 Vector   14  Occ=0.000000D+00  E= 1.923313D+00
              MO Center=  2.9D-02, -7.4D-01, -1.9D-13, r^2= 6.8D-01
   Bfn.  Coefficient  Atom+Function         Bfn.  Coefficient  Atom+Function  
  ----- ------------  ---------------      ----- ------------  ---------------
    18      1.272202  2 H  py                 5      0.663875  1 O  py         
     3     -0.642532  1 O  s                 15      0.407096  2 H  s          
    16      0.381911  2 H  s                  2     -0.330964  1 O  s          
     8      0.178852  1 O  py                14     -0.143970  1 O  d  2       
     1     -0.110619  1 O  s                 12     -0.082793  1 O  d  0       

 Vector   15  Occ=0.000000D+00  E= 2.455336D+00
              MO Center= -4.7D-03,  1.2D-01, -2.4D-13, r^2= 4.1D-01
   Bfn.  Coefficient  Atom+Function         Bfn.  Coefficient  Atom+Function  
  ----- ------------  ---------------      ----- ------------  ---------------
    12      0.865931  1 O  d  0              14     -0.498446  1 O  d  2       
    10     -0.038695  1 O  d -2       

 Vector   16  Occ=0.000000D+00  E= 2.456021D+00
              MO Center= -4.7D-03,  1.2D-01,  2.3D-13, r^2= 4.2D-01
   Bfn.  Coefficient  Atom+Function         Bfn.  Coefficient  Atom+Function  
  ----- ------------  ---------------      ----- ------------  ---------------
    13      0.998006  1 O  d  1               3     -0.076257  1 O  s          
    18      0.073636  2 H  py                15      0.066796  2 H  s          
     8      0.046121  1 O  py                11     -0.038680  1 O  d -1       
    14      0.031531  1 O  d  2               5      0.028611  1 O  py         

 Vector   17  Occ=0.000000D+00  E= 2.732819D+00
              MO Center= -1.1D-04,  2.8D-03, -2.8D-13, r^2= 5.9D-01
   Bfn.  Coefficient  Atom+Function         Bfn.  Coefficient  Atom+Function  
  ----- ------------  ---------------      ----- ------------  ---------------
    10      0.737047  1 O  d -2              11     -0.727857  1 O  d -1       
    17      0.376000  2 H  px                19     -0.370754  2 H  pz         
     7     -0.146418  1 O  px                 9      0.144375  1 O  pz         
    14     -0.057218  1 O  d  2              13     -0.028210  1 O  d  1       

 Vector   18  Occ=0.000000D+00  E= 2.789945D+00
              MO Center= -3.7D-04,  9.7D-03,  3.6D-13, r^2= 5.8D-01
   Bfn.  Coefficient  Atom+Function         Bfn.  Coefficient  Atom+Function  
  ----- ------------  ---------------      ----- ------------  ---------------
    11      0.739996  1 O  d -1              10      0.727483  1 O  d -2       
    19      0.368712  2 H  pz                17      0.363022  2 H  px         
     9     -0.144085  1 O  pz                 7     -0.141861  1 O  px         
    14     -0.056476  1 O  d  2              13      0.028680  1 O  d  1       

 Vector   19  Occ=0.000000D+00  E= 3.457031D+00
              MO Center=  6.8D-05, -1.8D-03, -4.9D-14, r^2= 7.9D-01
   Bfn.  Coefficient  Atom+Function         Bfn.  Coefficient  Atom+Function  
  ----- ------------  ---------------      ----- ------------  ---------------
     3      1.495135  1 O  s                 15     -1.441233  2 H  s          
    18     -1.082496  2 H  py                14     -1.069604  1 O  d  2       
     8     -1.005243  1 O  py                12     -0.619869  1 O  d  0       
     5     -0.340081  1 O  py                16     -0.329698  2 H  s          
     2     -0.214704  1 O  s                  1     -0.143111  1 O  s          


                     DFT Final Beta Molecular Orbital Analysis
                     -----------------------------------------

 Vector    1  Occ=1.000000D+00  E=-1.879064D+01
              MO Center= -4.7D-03,  1.2D-01,  5.5D-16, r^2= 1.5D-02
   Bfn.  Coefficient  Atom+Function         Bfn.  Coefficient  Atom+Function  
  ----- ------------  ---------------      ----- ------------  ---------------
     1      1.003063  1 O  s          

 Vector    2  Occ=1.000000D+00  E=-8.417400D-01
              MO Center=  4.2D-03, -1.1D-01,  5.2D-13, r^2= 4.8D-01
   Bfn.  Coefficient  Atom+Function         Bfn.  Coefficient  Atom+Function  
  ----- ------------  ---------------      ----- ------------  ---------------
     2      0.449769  1 O  s                  3      0.447051  1 O  s          
    15      0.234786  2 H  s                  5     -0.121990  1 O  py         
    18      0.042129  2 H  py                16      0.029468  2 H  s          

 Vector    3  Occ=1.000000D+00  E=-3.719837D-01
              MO Center= -1.8D-03,  4.6D-02,  1.8D-13, r^2= 7.5D-01
   Bfn.  Coefficient  Atom+Function         Bfn.  Coefficient  Atom+Function  
  ----- ------------  ---------------      ----- ------------  ---------------
     5      0.515048  1 O  py                15     -0.382715  2 H  s          
     3      0.375460  1 O  s                  8      0.276773  1 O  py         
     2      0.166727  1 O  s                 16     -0.101564  2 H  s          

 Vector    4  Occ=1.000000D+00  E=-2.311538D-01
              MO Center= -3.9D-03,  1.0D-01,  1.4D-12, r^2= 5.8D-01
   Bfn.  Coefficient  Atom+Function         Bfn.  Coefficient  Atom+Function  
  ----- ------------  ---------------      ----- ------------  ---------------
     6      0.462194  1 O  pz                 4      0.455050  1 O  px         
     9      0.347668  1 O  pz                 7      0.342295  1 O  px         
    19      0.026174  2 H  pz                17      0.025770  2 H  px         

 Vector    5  Occ=0.000000D+00  E=-2.010472D-01
              MO Center= -3.9D-03,  1.0D-01, -2.2D-14, r^2= 6.0D-01
   Bfn.  Coefficient  Atom+Function         Bfn.  Coefficient  Atom+Function  
  ----- ------------  ---------------      ----- ------------  ---------------
     4      0.449164  1 O  px                 6     -0.442886  1 O  pz         
     7      0.360255  1 O  px                 9     -0.355219  1 O  pz         
    17      0.028262  2 H  px                19     -0.027867  2 H  pz         

 Vector    6  Occ=0.000000D+00  E= 3.912181D-02
              MO Center=  3.8D-02, -9.9D-01,  2.6D-12, r^2= 2.0D+00
   Bfn.  Coefficient  Atom+Function         Bfn.  Coefficient  Atom+Function  
  ----- ------------  ---------------      ----- ------------  ---------------
    16      1.229507  2 H  s                  3     -0.686222  1 O  s          
     8      0.420049  1 O  py                 5      0.336878  1 O  py         
    15      0.202309  2 H  s                  2     -0.118180  1 O  s          

 Vector    7  Occ=0.000000D+00  E= 4.993924D-01
              MO Center=  3.2D-02, -8.2D-01, -5.1D-12, r^2= 1.4D+00
   Bfn.  Coefficient  Atom+Function         Bfn.  Coefficient  Atom+Function  
  ----- ------------  ---------------      ----- ------------  ---------------
    15      1.254932  2 H  s                 16     -1.065213  2 H  s          
     5      0.410844  1 O  py                18     -0.222395  2 H  py         
     3      0.199420  1 O  s                  8      0.105878  1 O  py         
     2     -0.099449  1 O  s                 14     -0.082099  1 O  d  2       
    12     -0.047585  1 O  d  0               1     -0.026062  1 O  s          

 Vector    8  Occ=0.000000D+00  E= 8.607373D-01
              MO Center= -2.8D-03,  7.1D-02,  9.5D-12, r^2= 1.1D+00
   Bfn.  Coefficient  Atom+Function         Bfn.  Coefficient  Atom+Function  
  ----- ------------  ---------------      ----- ------------  ---------------
     9     -0.709568  1 O  pz                 7     -0.698586  1 O  px         
     6      0.678629  1 O  pz                 4      0.668126  1 O  px         
    19     -0.071760  2 H  pz                17     -0.070649  2 H  px         
     8     -0.027075  1 O  py                 5      0.025895  1 O  py         

 Vector    9  Occ=0.000000D+00  E= 8.796361D-01
              MO Center= -2.3D-02,  5.9D-01, -1.7D-11, r^2= 1.1D+00
   Bfn.  Coefficient  Atom+Function         Bfn.  Coefficient  Atom+Function  
  ----- ------------  ---------------      ----- ------------  ---------------
     8      1.492063  1 O  py                15      0.778770  2 H  s          
     5     -0.715861  1 O  py                 3     -0.337794  1 O  s          
     2     -0.283226  1 O  s                 18      0.282607  2 H  py         
    16      0.229153  2 H  s                  1     -0.073588  1 O  s          
     7     -0.057829  1 O  px                 4      0.027745  1 O  px         

 Vector   10  Occ=0.000000D+00  E= 8.861732D-01
              MO Center= -2.6D-03,  6.7D-02, -2.5D-12, r^2= 1.1D+00
   Bfn.  Coefficient  Atom+Function         Bfn.  Coefficient  Atom+Function  
  ----- ------------  ---------------      ----- ------------  ---------------
     7     -0.699225  1 O  px                 4      0.686054  1 O  px         
     9      0.689438  1 O  pz                 6     -0.676450  1 O  pz         
    17     -0.077566  2 H  px                19      0.076481  2 H  pz         
     8     -0.027100  1 O  py                 5      0.026590  1 O  py         

 Vector   11  Occ=0.000000D+00  E= 1.236870D+00
              MO Center=  2.5D-02, -6.5D-01, -1.7D-11, r^2= 8.2D-01
   Bfn.  Coefficient  Atom+Function         Bfn.  Coefficient  Atom+Function  
  ----- ------------  ---------------      ----- ------------  ---------------
    19      0.714846  2 H  pz                17      0.703856  2 H  px         
     9     -0.354578  1 O  pz                 7     -0.349128  1 O  px         
    11     -0.114392  1 O  d -1              10     -0.112464  1 O  d -2       
     6      0.058689  1 O  pz                 4      0.057787  1 O  px         
    18      0.027280  2 H  py         

 Vector   12  Occ=0.000000D+00  E= 1.236943D+00
              MO Center=  2.5D-02, -6.5D-01,  3.2D-11, r^2= 8.3D-01
   Bfn.  Coefficient  Atom+Function         Bfn.  Coefficient  Atom+Function  
  ----- ------------  ---------------      ----- ------------  ---------------
    17      0.714312  2 H  px                19     -0.704387  2 H  pz         
     7     -0.361084  1 O  px                 9      0.356066  1 O  pz         
    10     -0.112704  1 O  d -2              11      0.111306  1 O  d -1       
     4      0.064964  1 O  px                 6     -0.064061  1 O  pz         
    18      0.027685  2 H  py         

 Vector   13  Occ=0.000000D+00  E= 1.367594D+00
              MO Center=  6.9D-03, -1.8D-01, -4.7D-12, r^2= 1.3D+00
   Bfn.  Coefficient  Atom+Function         Bfn.  Coefficient  Atom+Function  
  ----- ------------  ---------------      ----- ------------  ---------------
     3      2.400195  1 O  s                  2     -1.664401  1 O  s          
    16     -0.759448  2 H  s                  8     -0.741661  1 O  py         
     1     -0.716166  1 O  s                 15     -0.519128  2 H  s          
    18     -0.282996  2 H  py                14      0.062784  1 O  d  2       
     5      0.049658  1 O  py                12      0.036308  1 O  d  0       

 Vector   14  Occ=0.000000D+00  E= 1.938524D+00
              MO Center=  2.9D-02, -7.4D-01, -6.7D-13, r^2= 6.7D-01
   Bfn.  Coefficient  Atom+Function         Bfn.  Coefficient  Atom+Function  
  ----- ------------  ---------------      ----- ------------  ---------------
    18      1.279582  2 H  py                 5      0.673675  1 O  py         
     3     -0.635602  1 O  s                 15      0.427205  2 H  s          
    16      0.375077  2 H  s                  2     -0.356375  1 O  s          
     8      0.183709  1 O  py                14     -0.131143  1 O  d  2       
     1     -0.118761  1 O  s                 12     -0.076179  1 O  d  0       

 Vector   15  Occ=0.000000D+00  E= 2.534907D+00
              MO Center= -4.7D-03,  1.2D-01, -6.0D-14, r^2= 4.1D-01
   Bfn.  Coefficient  Atom+Function         Bfn.  Coefficient  Atom+Function  
  ----- ------------  ---------------      ----- ------------  ---------------
    12      0.865930  1 O  d  0              14     -0.498446  1 O  d  2       
    10     -0.038695  1 O  d -2       

 Vector   16  Occ=0.000000D+00  E= 2.554185D+00
              MO Center= -4.7D-03,  1.2D-01, -1.0D-13, r^2= 4.1D-01
   Bfn.  Coefficient  Atom+Function         Bfn.  Coefficient  Atom+Function  
  ----- ------------  ---------------      ----- ------------  ---------------
    13      0.998950  1 O  d  1              11     -0.038717  1 O  d -1       
    18     -0.029487  2 H  py                15     -0.026556  2 H  s          

 Vector   17  Occ=0.000000D+00  E= 2.801534D+00
              MO Center= -4.5D-04,  1.2D-02,  2.6D-13, r^2= 5.8D-01
   Bfn.  Coefficient  Atom+Function         Bfn.  Coefficient  Atom+Function  
  ----- ------------  ---------------      ----- ------------  ---------------
    11      0.740416  1 O  d -1              10      0.727897  1 O  d -2       
    19      0.366152  2 H  pz                17      0.360503  2 H  px         
     9     -0.143484  1 O  pz                 7     -0.141270  1 O  px         
    14     -0.056508  1 O  d  2              13      0.028697  1 O  d  1       

 Vector   18  Occ=0.000000D+00  E= 2.811768D+00
              MO Center= -4.7D-04,  1.2D-02, -1.4D-13, r^2= 5.8D-01
   Bfn.  Coefficient  Atom+Function         Bfn.  Coefficient  Atom+Function  
  ----- ------------  ---------------      ----- ------------  ---------------
    10      0.738981  1 O  d -2              11     -0.729769  1 O  d -1       
    17      0.364518  2 H  px                19     -0.359433  2 H  pz         
     7     -0.142955  1 O  px                 9      0.140961  1 O  pz         
    14     -0.057368  1 O  d  2              13     -0.028284  1 O  d  1       

 Vector   19  Occ=0.000000D+00  E= 3.487835D+00
              MO Center= -1.8D-04,  4.7D-03,  3.6D-13, r^2= 7.9D-01
   Bfn.  Coefficient  Atom+Function         Bfn.  Coefficient  Atom+Function  
  ----- ------------  ---------------      ----- ------------  ---------------
     3      1.491442  1 O  s                 15     -1.432717  2 H  s          
    14     -1.071729  1 O  d  2              18     -1.069285  2 H  py         
     8     -0.999658  1 O  py                12     -0.620423  1 O  d  0       
     5     -0.336643  1 O  py                16     -0.326948  2 H  s          
     2     -0.229820  1 O  s                  1     -0.147641  1 O  s          


   alpha - beta orbital overlaps 
   ----------------------------- 


   alpha      1      2      3      4      5      6      7      8      9     10
    beta      1      2      3      5      4      6      7     10      8      9
 overlap   1.000  0.999  0.999  0.999  1.000  1.000  1.000  0.998  1.000  1.000


   alpha     11     12     13     14     15     16     17     18     19
    beta     12     11     13     14     15     16     18     17     19
 overlap   1.000  1.000  1.000  0.999  1.000  0.998  1.000  1.000  0.999

     --------------------------
     Expectation value of S2:  
     --------------------------
      <S2> =      0.7516 (Exact =     0.7500)


 center of mass
 --------------
 x =  -0.00462824 y =   0.11941537 z =   0.00000000

 moments of inertia (a.u.)
 ------------------
           3.384554408010           0.131176826331           0.000000000000
           0.131176826331           0.005084084252           0.000000000000
           0.000000000000           0.000000000000           3.389638492262

     Multipole analysis of the density
     ---------------------------------

     L   x y z        total         alpha         beta         nuclear
     -   - - -        -----         -----         ----         -------
     0   0 0 0     -0.000000     -5.000000     -4.000000      9.000000

     1   1 0 0      0.024830      0.020606      0.011715     -0.007491
     1   0 1 0     -0.640650     -0.531652     -0.302266      0.193268
     1   0 0 1     -0.000000     -0.000000     -0.000000      0.000000

     2   2 0 0     -4.286057     -2.516105     -1.774725      0.004773
     2   1 1 0     -0.037918      0.034483      0.050747     -0.123147
     2   1 0 1     -0.417689     -0.007100     -0.410589      0.000000
     2   0 2 0     -3.309190     -3.404472     -3.082093      3.177375
     2   0 1 1     -0.016189     -0.000275     -0.015913      0.000000
     2   0 0 2     -4.299921     -2.514978     -1.784943      0.000000

 Line search: 
     step= 1.00 grad=-1.1D-03 hess= 7.4D-04 energy=    -75.645295 mode=downhill
 new step= 0.73                   predicted energy=    -75.645349
  no constraints, skipping    0.0000000000000000     
  no constraints, skipping    0.0000000000000000     
  no constraints, skipping    0.0000000000000000     

          --------
          Step   1
          --------


                         Geometry "geometry" -> "geometry"
                         ---------------------------------

 Output coordinates in angstroms (scale by  1.889725989 to convert to a.u.)

  No.       Tag          Charge          X              Y              Z
 ---- ---------------- ---------- -------------- -------------- --------------
    1 O                    8.0000    -0.00459330     0.11851399     0.00000000
    2 H                    1.0000     0.03385215    -0.87343518     0.00000000

      Atomic Mass 
      ----------- 

      O                 15.994910
      H                  1.007825


 Effective nuclear repulsion energy (a.u.)       4.2645753793

            Nuclear Dipole moment (a.u.) 
            ----------------------------
        X                 Y               Z
 ---------------- ---------------- ----------------
    -0.0054693989     0.1411185086     0.0000000000


                                 NWChem DFT Module
                                 -----------------




 Summary of "ao basis" -> "cc-pvdz" (spherical)
 ------------------------------------------------------------------------------
       Tag                 Description            Shells   Functions and Types
 ---------------- ------------------------------  ------  ---------------------
 O                          cc-pvdz                  6       14   3s2p1d
 H                          cc-pvdz                  3        5   2s1p


  texas integral default override: limxmem =             50000000
  Caching 1-el integrals 

            General Information
            -------------------
          SCF calculation type: DFT
          Wavefunction type:  spin polarized.
          No. of atoms     :     2
          No. of electrons :     9
           Alpha electrons :     5
            Beta electrons :     4
          Charge           :     0
          Spin multiplicity:     2
          Use of symmetry is: off; symmetry adaption is: off
          Maximum number of iterations: 500
          This is a Direct SCF calculation.
          AO basis - number of functions:    19
                     number of shells:     9
          Convergence on energy requested:  1.00D-06
          Convergence on density requested:  1.00D-05
          Convergence on gradient requested:  5.00D-04

              XC Information
              --------------
          PerdewBurkeErnzerhof Exchange Functional  1.000          
            Perdew 1991 LDA Correlation Functional  1.000 local    
           PerdewBurkeErnz. Correlation Functional  1.000 non-local

             Grid Information
             ----------------
          Grid used for XC integration:  medium    
          Radial quadrature: Mura-Knowles        
          Angular quadrature: Lebedev. 
          Tag              B.-S. Rad. Rad. Pts. Rad. Cut. Ang. Pts.
          ---              ---------- --------- --------- ---------
          O                   0.60       49           5.0       434
          H                   0.35       45           5.0       434
          Grid pruning is: on 
          Number of quadrature shells:    94
          Spatial weights used:  Erf1

          Convergence Information
          -----------------------
          Convergence aids based upon iterative change in 
          total energy or number of iterations. 
          Levelshifting, if invoked, occurs when the 
          HOMO/LUMO gap drops below (HL_TOL):  1.00D-02
          DIIS, if invoked, will attempt to extrapolate 
          using up to (NFOCK): 10 stored Fock matrices.

                    Damping( 0%)  Levelshifting(0.5)       DIIS
                  --------------- ------------------- ---------------
          dE  on:    start            ASAP                start   
          dE off:    2 iters        500 iters           500 iters 


      Screening Tolerance Information
      -------------------------------
          Density screening/tol_rho:  1.00D-10
          AO Gaussian exp screening on grid/accAOfunc:  14
          CD Gaussian exp screening on grid/accCDfunc:  20
          XC Gaussian exp screening on grid/accXCfunc:  20
          Schwarz screening/accCoul:  1.00D-08


 Loading old vectors from job with title :



   Time after variat. SCF:      1.5
   Time prior to 1st pass:      1.5

 Grid_pts file          = ./oh-dat.gridpts.00
 Record size in doubles =  12289        No. of grid_pts per rec  =   3070
 Max. records in memory =      2        Max. recs in file   =   4694705


           Memory utilization after 1st SCF pass: 
           Heap Space remaining (MW):       13.08            13080970
          Stack Space remaining (MW):       65.54            65535700

   convergence    iter        energy       DeltaE   RMS-Dens  Diis-err    time
[...]
 overlap   0.998  0.998  0.998  0.992  0.998  0.989  0.990  0.998  0.999  1.000


   alpha     41     42     43     44     45     46     47     48     49     50
    beta     41     42     44     43     45     47     46     48     49     51
 overlap   0.995  0.997  0.996  1.000  0.999  0.995  1.000  1.000  1.000  0.997


   alpha     51     52     53     54     55     56     57     58     59     60
    beta     50     52     54     53     55     56     57     59     58     60
 overlap   1.000  0.996  1.000  1.000  1.000  0.997  1.000  0.999  1.000  1.000


   alpha     61     62     63     64     65     66     67     68     69     70
    beta     61     62     64     63     65     66     67     68     69     70
 overlap   1.000  1.000  0.998  0.999  0.994  0.992  0.993  0.991  0.832  1.000


   alpha     71     72     73     74     75     76     77     78     79     80
    beta     71     73     72     74     76     75     77     79     78     80
 overlap   0.832  0.999  1.000  0.991  0.991  0.999  0.993  0.999  1.000  0.999


   alpha     81     82     83     84     85     86     87     88     89     90
    beta     81     82     83     84     87     86     85     89     90     91
 overlap   0.986  0.988  0.999  0.999  0.998  1.000  1.000  0.763  0.761  0.765


   alpha     91     92     93     94     95     96     97     98     99    100
    beta     88     92     93     94     96     95     99     97     98    100
 overlap   0.761  0.997  1.000  0.997  1.000  1.000  0.709  1.000  0.709  0.948


   alpha    101    102    103    104    105    106    107    108    109    110
    beta    101    102    103    104    105    106    108    107    109    110
 overlap   0.947  0.948  0.947  1.000  0.999  0.999  1.000  1.000  0.999  0.998


   alpha    111    112    113    114    115    116    117    118    119    120
    beta    111    113    112    114    115    116    118    117    120    119
 overlap   0.999  1.000  1.000  1.000  0.999  1.000  0.998  1.000  0.996  0.997


   alpha    121    122    123    124    125    126    127    128    129    130
    beta    121    123    122    124    125    126    127    129    128    131
 overlap   0.998  0.996  0.997  0.998  0.998  1.000  0.999  0.997  0.999  0.998


   alpha    131    132    133    134    135    136    137    138    139    140
    beta    130    134    132    133    135    136    137    139    138    141
 overlap   1.000  0.998  0.984  1.000  0.911  0.998  0.899  0.996  0.999  1.000


   alpha    141    142    143    144    145    146    147    148    149    150
    beta    140    142    144    143    145    146    147    148    149    150
 overlap   1.000  0.999  1.000  1.000  1.000  1.000  1.000  1.000  1.000  1.000


   alpha    151    152    153    154    155    156    157    158    159    160
    beta    151    153    152    154    156    155    157    158    159    160
 overlap   1.000  0.999  1.000  1.000  1.000  1.000  1.000  1.000  1.000  1.000


   alpha    161    162    163    164    165    166    167    168    169    170
    beta    162    161    163    164    165    166    167    169    168    170
 overlap   1.000  1.000  1.000  1.000  1.000  1.000  1.000  1.000  1.000  1.000


   alpha    171    172    173    174    175    176    177    178    179    180
    beta    171    172    174    173    176    175    178    177    179    181
 overlap   1.000  1.000  0.999  1.000  1.000  1.000  0.999  0.999  1.000  0.999


   alpha    181    182    183    184    185    186    187    188    189    190
    beta    180    182    183    184    185    186    188    187    191    192
 overlap   1.000  1.000  1.000  1.000  1.000  1.000  0.999  1.000  0.999  0.999


   alpha    191    192    193    194    195    196    197    198    199    200
    beta    190    189    194    193    195    197    196    198    200    199
 overlap   0.980  0.981  0.980  0.981  0.999  0.998  0.999  0.998  1.000  1.000


   alpha    201    202    203    204    205    206    207    208    209    210
    beta    202    201    203    205    204    206    208    207    209    210
 overlap   0.997  1.000  0.999  0.999  0.999  0.998  0.999  0.999  1.000  0.999


   alpha    211    212    213    214    215    216    217    218    219    220
    beta    211    212    214    213    216    215    217    218    219    221
 overlap   1.000  1.000  0.999  0.999  0.999  1.000  0.988  1.000  0.988  1.000


   alpha    221    222    223    224    225    226    227    228    229    230
    beta    220    222    223    224    226    225    227    229    228    230
 overlap   1.000  0.999  1.000  1.000  1.000  1.000  1.000  1.000  1.000  1.000


   alpha    231
    beta    231
 overlap   1.000

     --------------------------
     Expectation value of S2:  
     --------------------------
      <S2> =      0.7523 (Exact =     0.7500)


 center of mass
 --------------
 x =  -0.00405749 y =   0.10468924 z =   0.00000000

 moments of inertia (a.u.)
 ------------------
           3.265904344301           0.126578247929           0.000000000000
           0.126578247929           0.004905854906           0.000000000000
           0.000000000000           0.000000000000           3.270810199207

     Multipole analysis of the density
     ---------------------------------

     L   x y z        total         alpha         beta         nuclear
     -   - - -        -----         -----         ----         -------
     0   0 0 0     -0.000000     -5.000000     -4.000000      9.000000

     1   1 0 0      0.024672      0.017339      0.010291     -0.002958
     1   0 1 0     -0.636567     -0.447376     -0.265512      0.076321
     1   0 0 1      0.000000      0.000000      0.000000      0.000000

     2   2 0 0     -4.183440     -2.721221     -1.466819      0.004601
     2   1 1 0     -0.024040      0.028922      0.065739     -0.118700
     2   1 0 1     -0.000103     -0.000001     -0.000102      0.000000
     2   0 2 0     -3.564111     -3.466318     -3.160423      3.062630
     2   0 1 1     -0.000004     -0.000000     -0.000004      0.000000
     2   0 0 2     -5.179989     -2.734187     -2.445802      0.000000

 Line search: 
     step= 1.00 grad=-1.2D-09 hess=-3.0D-09 energy=    -75.690091 mode=accept  
 new step= 1.00                   predicted energy=    -75.690091
  no constraints, skipping    0.0000000000000000     
  no constraints, skipping    0.0000000000000000     
  no constraints, skipping    0.0000000000000000     

          --------
          Step   1
          --------


                         Geometry "geometry" -> "geometry"
                         ---------------------------------

 Output coordinates in angstroms (scale by  1.889725989 to convert to a.u.)

  No.       Tag          Charge          X              Y              Z
 ---- ---------------- ---------- -------------- -------------- --------------
    1 O                    8.0000    -0.00440345     0.11361554     0.00000000
    2 H                    1.0000     0.03366230    -0.86853673     0.00000000

      Atomic Mass 
      ----------- 

      O                 15.994910
      H                  1.007825


 Effective nuclear repulsion energy (a.u.)       4.3071141936

            Nuclear Dipole moment (a.u.) 
            ----------------------------
        X                 Y               Z
 ---------------- ---------------- ----------------
    -0.0029580277     0.0763214505     0.0000000000


                                 NWChem DFT Module
                                 -----------------




 Summary of "ao basis" -> "cc-pv6z" (spherical)
 ------------------------------------------------------------------------------
       Tag                 Description            Shells   Functions and Types
 ---------------- ------------------------------  ------  ---------------------
 O                          cc-pv6z                 28      140   7s6p5d4f3g2h1i
 H                          cc-pv6z                 21       91   6s5p4d3f2g1h



  The DFT is already converged 

         Total DFT energy =    -75.690091354626


            General Information
            -------------------
          SCF calculation type: DFT
          Wavefunction type:  spin polarized.
          No. of atoms     :     2
          No. of electrons :     9
           Alpha electrons :     5
            Beta electrons :     4
          Charge           :     0
          Spin multiplicity:     2
          Use of symmetry is: off; symmetry adaption is: off
          Maximum number of iterations: 500
          This is a Direct SCF calculation.
          AO basis - number of functions:   231
                     number of shells:    49
          Convergence on energy requested:  1.00D-06
          Convergence on density requested:  1.00D-05
          Convergence on gradient requested:  5.00D-04

              XC Information
              --------------
          PerdewBurkeErnzerhof Exchange Functional  1.000          
            Perdew 1991 LDA Correlation Functional  1.000 local    
           PerdewBurkeErnz. Correlation Functional  1.000 non-local

             Grid Information
             ----------------
          Grid used for XC integration:  medium    
          Radial quadrature: Mura-Knowles        
          Angular quadrature: Lebedev. 
          Tag              B.-S. Rad. Rad. Pts. Rad. Cut. Ang. Pts.
          ---              ---------- --------- --------- ---------
          O                   0.60       49           7.0       434
          H                   0.35       45           7.0       434
          Grid pruning is: on 
          Number of quadrature shells:    94
          Spatial weights used:  Erf1

          Convergence Information
          -----------------------
          Convergence aids based upon iterative change in 
          total energy or number of iterations. 
          Levelshifting, if invoked, occurs when the 
          HOMO/LUMO gap drops below (HL_TOL):  1.00D-02
          DIIS, if invoked, will attempt to extrapolate 
          using up to (NFOCK): 10 stored Fock matrices.

                    Damping( 0%)  Levelshifting(0.5)       DIIS
                  --------------- ------------------- ---------------
          dE  on:    start            ASAP                start   
          dE off:    2 iters        500 iters           500 iters 


      Screening Tolerance Information
      -------------------------------
          Density screening/tol_rho:  1.00D-10
          AO Gaussian exp screening on grid/accAOfunc:  14
          CD Gaussian exp screening on grid/accCDfunc:  20
          XC Gaussian exp screening on grid/accXCfunc:  20
          Schwarz screening/accCoul:  1.00D-08

  texas integral default override: limxmem =             50000000
  texas integral default override: limxmem =             50000000


                            NWChem DFT Gradient Module
                            --------------------------



  charge          =   0.00
  wavefunction    = open shell

  texas integral default override: limxmem =             50000000
  texas integral default override: limxmem =             50000000


                         DFT ENERGY GRADIENTS

    atom               coordinates                        gradient
                 x          y          z           x          y          z
   1 O      -0.008321   0.214702   0.000000   -0.000000   0.000002   0.000000
   2 H       0.063613  -1.641296   0.000000    0.000000  -0.000002  -0.000000

                 ----------------------------------------
                 |  Time  |  1-e(secs)   |  2-e(secs)   |
                 ----------------------------------------
                 |  CPU   |       0.06   |       8.62   |
                 ----------------------------------------
                 |  WALL  |       0.06   |       9.46   |
                 ----------------------------------------
  no constraints, skipping    0.0000000000000000     

  Step       Energy      Delta E   Gmax     Grms     Xrms     Xmax   Walltime
  ---- ---------------- -------- -------- -------- -------- -------- --------
@    1     -75.69009135 -4.2D-09  0.00000  0.00000  0.00002  0.00003    332.5
                                     ok       ok       ok       ok  



                                Z-matrix (autoz)
                                -------- 

 Units are Angstrom for bonds and degrees for angles

      Type          Name      I     J     K     L     M      Value     Gradient
      ----------- --------  ----- ----- ----- ----- ----- ---------- ----------
    1 Stretch                  1     2                       0.98289    0.00000


      ----------------------
      Optimization converged
      ----------------------


  Step       Energy      Delta E   Gmax     Grms     Xrms     Xmax   Walltime
  ---- ---------------- -------- -------- -------- -------- -------- --------
@    1     -75.69009135 -4.2D-09  0.00000  0.00000  0.00002  0.00003    332.5
                                     ok       ok       ok       ok  



                                Z-matrix (autoz)
                                -------- 

 Units are Angstrom for bonds and degrees for angles

      Type          Name      I     J     K     L     M      Value     Gradient
      ----------- --------  ----- ----- ----- ----- ----- ---------- ----------
    1 Stretch                  1     2                       0.98289    0.00000



                         Geometry "geometry" -> "geometry"
                         ---------------------------------

 Output coordinates in angstroms (scale by  1.889725989 to convert to a.u.)

  No.       Tag          Charge          X              Y              Z
 ---- ---------------- ---------- -------------- -------------- --------------
    1 O                    8.0000    -0.00440345     0.11361554     0.00000000
    2 H                    1.0000     0.03366230    -0.86853673     0.00000000

      Atomic Mass 
      ----------- 

      O                 15.994910
      H                  1.007825


 Effective nuclear repulsion energy (a.u.)       4.3071141936

            Nuclear Dipole moment (a.u.) 
            ----------------------------
        X                 Y               Z
 ---------------- ---------------- ----------------
    -0.0029580277     0.0763214505     0.0000000000


                Final and change from initial internal coordinates
                --------------------------------------------------



                                Z-matrix (autoz)
                                -------- 

 Units are Angstrom for bonds and degrees for angles

      Type          Name      I     J     K     L     M      Value       Change
      ----------- --------  ----- ----- ----- ----- ----- ---------- ----------
    1 Stretch                  1     2                       0.98289    0.00003

 ==============================================================================
                                internuclear distances
 ------------------------------------------------------------------------------
       center one      |      center two      | atomic units |  angstroms
 ------------------------------------------------------------------------------
    2 H                |   1 O                |     1.85739  |     0.98289
 ------------------------------------------------------------------------------
                         number of included internuclear distances:          1
 ==============================================================================




 Task  times  cpu:      282.7s     wall:      289.0s


                                NWChem Input Module
                                -------------------


 Summary of allocated global arrays
-----------------------------------
  No active global arrays


MA_summarize_allocated_blocks: starting scan ...
MA_summarize_allocated_blocks: scan completed: 0 heap blocks, 0 stack blocks
MA usage statistics:

	allocation statistics:
					      heap	     stack
					      ----	     -----
	current number of blocks	         0	         0
	maximum number of blocks	        24	        54
	current total bytes		         0	         0
	maximum total bytes		    274784	 572362264
	maximum total K-bytes		       275	    572363
	maximum total M-bytes		         1	       573


                                     CITATION
                                     --------
                Please cite the following reference when publishing
                           results obtained with NWChem:

          E. Apra, E. J. Bylaska, W. A. de Jong, N. Govind, K. Kowalski,
       T. P. Straatsma, M. Valiev, H. J. J. van Dam, Y. Alexeev, J. Anchell,
       V. Anisimov, F. W. Aquino, R. Atta-Fynn, J. Autschbach, N. P. Bauman,
     J. C. Becca, D. E. Bernholdt, K. Bhaskaran-Nair, S. Bogatko, P. Borowski,
         J. Boschen, J. Brabec, A. Bruner, E. Cauet, Y. Chen, G. N. Chuev,
      C. J. Cramer, J. Daily, M. J. O. Deegan, T. H. Dunning Jr., M. Dupuis,
   K. G. Dyall, G. I. Fann, S. A. Fischer, A. Fonari, H. Fruchtl, L. Gagliardi,
      J. Garza, N. Gawande, S. Ghosh, K. Glaesemann, A. W. Gotz, J. Hammond,
       V. Helms, E. D. Hermes, K. Hirao, S. Hirata, M. Jacquelin, L. Jensen,
   B. G. Johnson, H. Jonsson, R. A. Kendall, M. Klemm, R. Kobayashi, V. Konkov,
      S. Krishnamoorthy, M. Krishnan, Z. Lin, R. D. Lins, R. J. Littlefield,
      A. J. Logsdail, K. Lopata, W. Ma, A. V. Marenich, J. Martin del Campo,
   D. Mejia-Rodriguez, J. E. Moore, J. M. Mullin, T. Nakajima, D. R. Nascimento,
    J. A. Nichols, P. J. Nichols, J. Nieplocha, A. Otero-de-la-Roza, B. Palmer,
    A. Panyala, T. Pirojsirikul, B. Peng, R. Peverati, J. Pittner, L. Pollack,
   R. M. Richard, P. Sadayappan, G. C. Schatz, W. A. Shelton, D. W. Silverstein,
   D. M. A. Smith, T. A. Soares, D. Song, M. Swart, H. L. Taylor, G. S. Thomas,
            V. Tipparaju, D. G. Truhlar, K. Tsemekhman, T. Van Voorhis,
      A. Vazquez-Mayagoitia, P. Verma, O. Villa, A. Vishnu, K. D. Vogiatzis,
        D. Wang, J. H. Weare, M. J. Williamson, T. L. Windus, K. Wolinski,
        A. T. Wong, Q. Wu, C. Yang, Q. Yu, M. Zacharias, Z. Zhang, Y. Zhao,
                                and R. J. Harrison
                        "NWChem: Past, present, and future
                         J. Chem. Phys. 152, 184102 (2020)
                               doi:10.1063/5.0004997

                                      AUTHORS
                                      -------
  E. Apra, E. J. Bylaska, N. Govind, K. Kowalski, M. Valiev, D. Mejia-Rodriguez,
       A. Kunitsa, N. P. Bauman, A. Panyala, W. A. de Jong, T. P. Straatsma,
        H. J. J. van Dam, D. Wang, T. L. Windus, J. Hammond, J. Autschbach,
    K. Bhaskaran-Nair, J. Brabec, K. Lopata, S. A. Fischer, S. Krishnamoorthy,
     M. Jacquelin, W. Ma, M. Klemm, O. Villa, Y. Chen, V. Anisimov, F. Aquino,
    S. Hirata, M. T. Hackler, Eric Hermes, L. Jensen, J. E. Moore, J. C. Becca,
      V. Konjkov, T. Risthaus, M. Malagoli, A. Marenich, A. Otero-de-la-Roza,
        J. Mullin, P. Nichols, R. Peverati, J. Pittner, Y. Zhao, P.-D. Fan,
        A. Fonari, M. J. Williamson, R. J. Harrison, J. R. Rehr, M. Dupuis,
     D. Silverstein, D. M. A. Smith, J. Nieplocha, V. Tipparaju, M. Krishnan,
     B. E. Van Kuiken, A. Vazquez-Mayagoitia, M. Swart, Q. Wu, T. Van Voorhis,
     A. A. Auer, M. Nooijen, L. D. Crosby, E. Brown, G. Cisneros, G. I. Fann,
   H. Fruchtl, J. Garza, K. Hirao, R. A. Kendall, J. A. Nichols, K. Tsemekhman,
    K. Wolinski, J. Anchell, D. E. Bernholdt, P. Borowski, T. Clark, D. Clerc,
   H. Dachsel, M. J. O. Deegan, K. Dyall, D. Elwood, E. Glendening, M. Gutowski,
   A. C. Hess, J. Jaffe, B. G. Johnson, J. Ju, R. Kobayashi, R. Kutteh, Z. Lin,
   R. Littlefield, X. Long, B. Meng, T. Nakajima, S. Niu, L. Pollack, M. Rosing,
   K. Glaesemann, G. Sandrone, M. Stave, H. Taylor, G. Thomas, J. H. van Lenthe,
                               A. T. Wong, Z. Zhang.

 Total times  cpu:      322.0s     wall:      332.7s
