 argument  1 = oh0-dft-pbe-aug.nw



============================== echo of input deck ==============================
echo
start oh-aug-dat

memory heap 100 mb stack 500 mb global 1024 mb

geometry
  load ../xyz/oh-.xyz
  #load oh-.xyz
  symmetry c1
end

charge 0

basis "cc-pvdz" spherical
  * library aug-cc-pvdz
end
basis "cc-pvtz" spherical
  * library aug-cc-pvtz
end
basis "cc-pvqz" spherical
  * library aug-cc-pvqz
end
basis "cc-pv5z" spherical
  * library aug-cc-pv5z
end
basis "cc-pv6z" spherical
  * library aug-cc-pv6z
end

dft
  odft
  direct
  mult 2
  # select PBE functional following https://doi.org/10.1002/aic.15517
  xc xpbe96 cpbe96
end

set int:txs:limxmem              50000000

set "ao basis" "cc-pvdz"
task dft optimize

set "ao basis" "cc-pvtz"
task dft optimize

set "ao basis" "cc-pvqz"
task dft optimize

set "ao basis" "cc-pv5z"
task dft optimize

set "ao basis" "cc-pv6z"
task dft optimize
================================================================================


                                         
                                         


             Northwest Computational Chemistry Package (NWChem) 7.0.1
             --------------------------------------------------------


                    Environmental Molecular Sciences Laboratory
                       Pacific Northwest National Laboratory
                                Richland, WA 99352

                              Copyright (c) 1994-2020
                       Pacific Northwest National Laboratory
                            Battelle Memorial Institute

             NWChem is an open-source computational chemistry package
                        distributed under the terms of the
                      Educational Community License (ECL) 2.0
             A copy of the license is included with this distribution
                              in the LICENSE.TXT file

                                  ACKNOWLEDGMENT
                                  --------------

            This software and its documentation were developed at the
            EMSL at Pacific Northwest National Laboratory, a multiprogram
            national laboratory, operated for the U.S. Department of Energy
            by Battelle under Contract Number DE-AC05-76RL01830. Support
            for this work was provided by the Department of Energy Office
            of Biological and Environmental Research, Office of Basic
            Energy Sciences, and the Office of Advanced Scientific Computing.


           Job information
           ---------------

    hostname        = node01
    program         = /home/hvandam/nwchem-1-srp-hpc/QA/tests/ZSM-5/nwc/../../../../bin/LINUX64/nwchem
    date            = Sat Jun  3 22:53:07 2023

    compiled        = Fri_Jun_02_17:17:24_2023
    source          = /home/hvandam/nwchem-1-srp-hpc
    nwchem branch   = 7.0.0
    nwchem revision = nwchem_on_git-4134-gde132dc
    ga revision     = 5.8.1
    use scalapack   = F
    input           = oh0-dft-pbe-aug.nw
    prefix          = oh-aug-dat.
    data base       = ./oh-aug-dat.db
    status          = startup
    nproc           =       16
    time left       =  86399s



           Memory information
           ------------------

    heap     =   13107196 doubles =    100.0 Mbytes
    stack    =   65536001 doubles =    500.0 Mbytes
    global   =  134217728 doubles =   1024.0 Mbytes (distinct from heap & stack)
    total    =  212860925 doubles =   1624.0 Mbytes
    verify   = yes
    hardfail = no 


           Directory information
           ---------------------

  0 permanent = .
  0 scratch   = .




                                NWChem Input Module
                                -------------------



 Scaling coordinates for geometry "geometry" by  1.889725989
 (inverse scale =  0.529177249)

 Turning off AUTOSYM since
 SYMMETRY directive was detected!


          ------
          auto-z
          ------
  no constraints, skipping    0.0000000000000000     
  no constraints, skipping    0.0000000000000000     


                             Geometry "geometry" -> ""
                             -------------------------

 Output coordinates in angstroms (scale by  1.889725989 to convert to a.u.)

  No.       Tag          Charge          X              Y              Z
 ---- ---------------- ---------- -------------- -------------- --------------
    1 O                    8.0000    -0.00417984     0.10784588     0.00000000
    2 H                    1.0000     0.03343868    -0.86276708     0.00000000

      Atomic Mass 
      ----------- 

      O                 15.994910
      H                  1.007825


 Effective nuclear repulsion energy (a.u.)       4.3583200974

            Nuclear Dipole moment (a.u.) 
            ----------------------------
        X                 Y               Z
 ---------------- ---------------- ----------------
    -0.0000000000     0.0000000000     0.0000000000



                                Z-matrix (autoz)
                                -------- 

 Units are Angstrom for bonds and degrees for angles

      Type          Name      I     J     K     L     M      Value
      ----------- --------  ----- ----- ----- ----- ----- ----------
    1 Stretch                  1     2                       0.97134


            XYZ format geometry
            -------------------
     2
 geometry
 O                    -0.00417984     0.10784588     0.00000000
 H                     0.03343868    -0.86276708     0.00000000

 ==============================================================================
                                internuclear distances
 ------------------------------------------------------------------------------
       center one      |      center two      | atomic units |  angstroms
 ------------------------------------------------------------------------------
    2 H                |   1 O                |     1.83557  |     0.97134
 ------------------------------------------------------------------------------
                         number of included internuclear distances:          1
 ==============================================================================





 Summary of "cc-pvdz" -> "" (spherical)
 ------------------------------------------------------------------------------
       Tag                 Description            Shells   Functions and Types
 ---------------- ------------------------------  ------  ---------------------
 *                        aug-cc-pvdz                 on all atoms 




 Summary of "cc-pvtz" -> "" (spherical)
 ------------------------------------------------------------------------------
       Tag                 Description            Shells   Functions and Types
 ---------------- ------------------------------  ------  ---------------------
 *                        aug-cc-pvtz                 on all atoms 




 Summary of "cc-pvqz" -> "" (spherical)
 ------------------------------------------------------------------------------
       Tag                 Description            Shells   Functions and Types
 ---------------- ------------------------------  ------  ---------------------
 *                        aug-cc-pvqz                 on all atoms 




 Summary of "cc-pv5z" -> "" (spherical)
 ------------------------------------------------------------------------------
       Tag                 Description            Shells   Functions and Types
 ---------------- ------------------------------  ------  ---------------------
 *                        aug-cc-pv5z                 on all atoms 




 Summary of "cc-pv6z" -> "" (spherical)
 ------------------------------------------------------------------------------
       Tag                 Description            Shells   Functions and Types
 ---------------- ------------------------------  ------  ---------------------
 *                        aug-cc-pv6z                 on all atoms 


  pbe96 is a nonlocal functional; adding pw91lda local functional. 


                           NWChem Geometry Optimization
                           ----------------------------


  no constraints, skipping    0.0000000000000000     
 maximum gradient threshold         (gmax) =   0.000450
 rms gradient threshold             (grms) =   0.000300
 maximum cartesian step threshold   (xmax) =   0.001800
 rms cartesian step threshold       (xrms) =   0.001200
 fixed trust radius                (trust) =   0.300000
 maximum step size to saddle      (sadstp) =   0.100000
 energy precision                  (eprec) =   5.0D-06
 maximum number of steps          (nptopt) =   40
 initial hessian option           (inhess) =    0
 line search option               (linopt) =    1
 hessian update option            (modupd) =    1
 saddle point option              (modsad) =    0
 initial eigen-mode to follow     (moddir) =    0
 initial variable to follow       (vardir) =    0
 follow first negative mode     (firstneg) =    T
 apply conjugacy                    (opcg) =    F
 source of zmatrix                         =   autoz   


          -------------------
          Energy Minimization
          -------------------


 Names of Z-matrix variables 
    1         

 Variables with the same non-blank name are constrained to be equal


 Using diagonal initial Hessian 
 Scaling for Hessian diagonals: bonds = 1.00  angles = 0.25  torsions = 0.10

          --------
          Step   0
          --------


                         Geometry "geometry" -> "geometry"
                         ---------------------------------

 Output coordinates in angstroms (scale by  1.889725989 to convert to a.u.)

  No.       Tag          Charge          X              Y              Z
 ---- ---------------- ---------- -------------- -------------- --------------
    1 O                    8.0000    -0.00417984     0.10784588     0.00000000
    2 H                    1.0000     0.03343868    -0.86276708     0.00000000

      Atomic Mass 
      ----------- 

      O                 15.994910
      H                  1.007825


 Effective nuclear repulsion energy (a.u.)       4.3583200974

            Nuclear Dipole moment (a.u.) 
            ----------------------------
        X                 Y               Z
 ---------------- ---------------- ----------------
    -0.0000000000     0.0000000000     0.0000000000


                                 NWChem DFT Module
                                 -----------------


                      Basis "ao basis" -> "cc-pvdz" (spherical)
                      -----
  O (Oxygen)
  ----------
            Exponent  Coefficients 
       -------------- ---------------------------------------------------------
  1 S  1.17200000E+04  0.000710
  1 S  1.75900000E+03  0.005470
  1 S  4.00800000E+02  0.027837
  1 S  1.13700000E+02  0.104800
  1 S  3.70300000E+01  0.283062
  1 S  1.32700000E+01  0.448719
  1 S  5.02500000E+00  0.270952
  1 S  1.01300000E+00  0.015458

  2 S  1.17200000E+04 -0.000160
  2 S  1.75900000E+03 -0.001263
  2 S  4.00800000E+02 -0.006267
  2 S  1.13700000E+02 -0.025716
  2 S  3.70300000E+01 -0.070924
  2 S  1.32700000E+01 -0.165411
  2 S  5.02500000E+00 -0.116955
  2 S  1.01300000E+00  0.557368

  3 S  3.02300000E-01  1.000000

  4 S  7.89600000E-02  1.000000

  5 P  1.77000000E+01  0.043018
  5 P  3.85400000E+00  0.228913
  5 P  1.04600000E+00  0.508728

  6 P  2.75300000E-01  1.000000

  7 P  6.85600000E-02  1.000000

  8 D  1.18500000E+00  1.000000

  9 D  3.32000000E-01  1.000000

  H (Hydrogen)
  ------------
            Exponent  Coefficients 
       -------------- ---------------------------------------------------------
  1 S  1.30100000E+01  0.019685
  1 S  1.96200000E+00  0.137977
  1 S  4.44600000E-01  0.478148

  2 S  1.22000000E-01  1.000000

  3 S  2.97400000E-02  1.000000

  4 P  7.27000000E-01  1.000000

  5 P  1.41000000E-01  1.000000



 Summary of "ao basis" -> "cc-pvdz" (spherical)
 ------------------------------------------------------------------------------
       Tag                 Description            Shells   Functions and Types
 ---------------- ------------------------------  ------  ---------------------
 O                        aug-cc-pvdz                9       23   4s3p2d
 H                        aug-cc-pvdz                5        9   3s2p




 Summary of "ao basis" -> "cc-pvdz" (spherical)
 ------------------------------------------------------------------------------
       Tag                 Description            Shells   Functions and Types
 ---------------- ------------------------------  ------  ---------------------
 O                        aug-cc-pvdz                9       23   4s3p2d
 H                        aug-cc-pvdz                5        9   3s2p


  texas integral default override: limxmem =             50000000
  Caching 1-el integrals 

            General Information
            -------------------
          SCF calculation type: DFT
          Wavefunction type:  spin polarized.
          No. of atoms     :     2
          No. of electrons :     9
           Alpha electrons :     5
            Beta electrons :     4
          Charge           :     0
          Spin multiplicity:     2
          Use of symmetry is: off; symmetry adaption is: off
          Maximum number of iterations: 500
          This is a Direct SCF calculation.
          AO basis - number of functions:    32
                     number of shells:    14
          Convergence on energy requested:  1.00D-06
          Convergence on density requested:  1.00D-05
          Convergence on gradient requested:  5.00D-04

              XC Information
              --------------
          PerdewBurkeErnzerhof Exchange Functional  1.000          
            Perdew 1991 LDA Correlation Functional  1.000 local    
           PerdewBurkeErnz. Correlation Functional  1.000 non-local

             Grid Information
             ----------------
          Grid used for XC integration:  medium    
          Radial quadrature: Mura-Knowles        
          Angular quadrature: Lebedev. 
          Tag              B.-S. Rad. Rad. Pts. Rad. Cut. Ang. Pts.
          ---              ---------- --------- --------- ---------
          O                   0.60       49           9.0       434
          H                   0.35       45           9.0       434
          Grid pruning is: on 
          Number of quadrature shells:    94
          Spatial weights used:  Erf1

          Convergence Information
          -----------------------
          Convergence aids based upon iterative change in 
          total energy or number of iterations. 
          Levelshifting, if invoked, occurs when the 
          HOMO/LUMO gap drops below (HL_TOL):  1.00D-02
          DIIS, if invoked, will attempt to extrapolate 
          using up to (NFOCK): 10 stored Fock matrices.

                    Damping( 0%)  Levelshifting(0.5)       DIIS
                  --------------- ------------------- ---------------
          dE  on:    start            ASAP                start   
          dE off:    2 iters        500 iters           500 iters 


      Screening Tolerance Information
      -------------------------------
          Density screening/tol_rho:  1.00D-10
          AO Gaussian exp screening on grid/accAOfunc:  14
          CD Gaussian exp screening on grid/accCDfunc:  20
          XC Gaussian exp screening on grid/accXCfunc:  20
          Schwarz screening/accCoul:  1.00D-08


      Superposition of Atomic Density Guess
      -------------------------------------

 Sum of atomic energies:         -75.26614932

      Non-variational initial energy
      ------------------------------

 Total energy =     -75.064450
 1-e energy   =    -111.956320
 2-e energy   =      32.533549
 HOMO         =      -0.428552
 LUMO         =       0.029685

   Time after variat. SCF:      0.4
   Time prior to 1st pass:      0.4

 Grid_pts file          = ./oh-aug-dat.gridpts.00
 Record size in doubles =  12289        No. of grid_pts per rec  =   3070
 Max. records in memory =      2        Max. recs in file   =   4694705


           Memory utilization after 1st SCF pass: 
           Heap Space remaining (MW):       13.08            13080780
          Stack Space remaining (MW):       65.54            65535604

   convergence    iter        energy       DeltaE   RMS-Dens  Diis-err    time
 ---------------- ----- ----------------- --------- --------- ---------  ------
 d= 0,ls=0.0,diis     1    -75.6460208354 -8.00D+01  6.47D-03  4.70D-02     0.5
                                                     6.97D-03  3.51D-02
 d= 0,ls=0.0,diis     2    -75.6591174826 -1.31D-02  2.51D-03  9.91D-03     0.6
                                                     2.33D-03  7.20D-03
 d= 0,ls=0.0,diis     3    -75.6617559231 -2.64D-03  9.92D-04  3.67D-03     0.7
                                                     1.02D-03  3.41D-03
 d= 0,ls=0.0,diis     4    -75.6630844271 -1.33D-03  2.78D-04  4.11D-04     0.7
                                                     2.03D-04  2.42D-04
 d= 0,ls=0.0,diis     5    -75.6632160127 -1.32D-04  8.80D-06  6.17D-08     0.8
                                                     3.18D-05  1.33D-06
 d= 0,ls=0.0,diis     6    -75.6632165482 -5.35D-07  7.07D-06  5.53D-08     0.9
                                                     2.65D-06  2.92D-09


         Total DFT energy =      -75.663216548182
      One electron energy =     -112.496097513251
           Coulomb energy =       41.260963563752
    Exchange-Corr. energy =       -8.786402696083
 Nuclear repulsion energy =        4.358320097400

 Numeric. integr. density =        9.000000284341

     Total iterative time =      0.5s



                    DFT Final Alpha Molecular Orbital Analysis
                    ------------------------------------------

 Vector    1  Occ=1.000000D+00  E=-1.885103D+01
              MO Center= -4.2D-03,  1.1D-01, -2.7D-18, r^2= 1.5D-02
   Bfn.  Coefficient  Atom+Function         Bfn.  Coefficient  Atom+Function  
  ----- ------------  ---------------      ----- ------------  ---------------
     1      1.004866  1 O  s          

 Vector    2  Occ=1.000000D+00  E=-9.385593D-01
              MO Center=  3.7D-03, -9.6D-02, -1.1D-14, r^2= 4.6D-01
   Bfn.  Coefficient  Atom+Function         Bfn.  Coefficient  Atom+Function  
  ----- ------------  ---------------      ----- ------------  ---------------
     2      0.478321  1 O  s                  3      0.438525  1 O  s          
    24      0.241426  2 H  s                  6     -0.118420  1 O  py         
     4      0.051694  1 O  s                 25     -0.044684  2 H  s          
    28      0.043584  2 H  py         

 Vector    3  Occ=1.000000D+00  E=-4.305430D-01
              MO Center= -2.0D-03,  5.2D-02, -2.2D-14, r^2= 7.4D-01
   Bfn.  Coefficient  Atom+Function         Bfn.  Coefficient  Atom+Function  
  ----- ------------  ---------------      ----- ------------  ---------------
     6      0.544572  1 O  py                24     -0.387769  2 H  s          
     3      0.314612  1 O  s                  9      0.232578  1 O  py         
     2      0.165083  1 O  s                 25     -0.118333  2 H  s          
     4      0.095176  1 O  s                 28     -0.033436  2 H  py         
    12      0.031338  1 O  py         

 Vector    4  Occ=1.000000D+00  E=-3.667727D-01
              MO Center= -2.9D-03,  7.6D-02,  3.1D-14, r^2= 5.9D-01
   Bfn.  Coefficient  Atom+Function         Bfn.  Coefficient  Atom+Function  
  ----- ------------  ---------------      ----- ------------  ---------------
     7      0.684336  1 O  pz                10      0.415588  1 O  pz         
    13      0.061984  1 O  pz         

 Vector    5  Occ=1.000000D+00  E=-2.935693D-01
              MO Center= -2.7D-03,  7.0D-02, -5.3D-16, r^2= 6.7D-01
   Bfn.  Coefficient  Atom+Function         Bfn.  Coefficient  Atom+Function  
  ----- ------------  ---------------      ----- ------------  ---------------
     5      0.658467  1 O  px                 8      0.418838  1 O  px         
    11      0.090495  1 O  px                30      0.028050  2 H  px         
    27      0.027417  2 H  px                 6      0.025521  1 O  py         

 Vector    6  Occ=0.000000D+00  E=-2.995560D-02
              MO Center=  4.4D-02, -1.1D+00, -4.9D-15, r^2= 6.2D+00
   Bfn.  Coefficient  Atom+Function         Bfn.  Coefficient  Atom+Function  
  ----- ------------  ---------------      ----- ------------  ---------------
    26      0.960129  2 H  s                 25      0.409451  2 H  s          
     4     -0.290994  1 O  s                  3     -0.246547  1 O  s          
     6      0.187984  1 O  py                 9      0.154487  1 O  py         
     2     -0.129900  1 O  s                 24      0.103266  2 H  s          
    12      0.079929  1 O  py                31     -0.070487  2 H  py         

 Vector    7  Occ=0.000000D+00  E= 8.732983D-02
              MO Center=  5.0D-03, -1.3D-01,  4.8D-12, r^2= 8.5D+00
   Bfn.  Coefficient  Atom+Function         Bfn.  Coefficient  Atom+Function  
  ----- ------------  ---------------      ----- ------------  ---------------
     4      1.840308  1 O  s                 26     -1.386478  2 H  s          
    12     -1.124967  1 O  py                25     -0.872921  2 H  s          
    31     -0.630843  2 H  py                 6      0.312028  1 O  py         
     3      0.188075  1 O  s                 24      0.132822  2 H  s          
     9      0.128492  1 O  py                 2     -0.072024  1 O  s          

 Vector    8  Occ=0.000000D+00  E= 9.790691D-02
              MO Center= -5.8D-03,  1.5D-01, -1.3D-11, r^2= 5.7D+00
   Bfn.  Coefficient  Atom+Function         Bfn.  Coefficient  Atom+Function  
  ----- ------------  ---------------      ----- ------------  ---------------
    13      1.139417  1 O  pz                10     -0.269795  1 O  pz         
     7     -0.239279  1 O  pz                32     -0.061049  2 H  pz         

 Vector    9  Occ=0.000000D+00  E= 1.086411D-01
              MO Center= -6.9D-03,  1.8D-01,  8.1D-12, r^2= 5.7D+00
   Bfn.  Coefficient  Atom+Function         Bfn.  Coefficient  Atom+Function  
  ----- ------------  ---------------      ----- ------------  ---------------
    11      1.161804  1 O  px                 8     -0.299147  1 O  px         
     5     -0.249888  1 O  px                30     -0.092856  2 H  px         
    12      0.045029  1 O  py         

 Vector   10  Occ=0.000000D+00  E= 1.214958D-01
              MO Center=  2.9D-04, -7.5D-03, -2.1D-13, r^2= 7.5D+00
   Bfn.  Coefficient  Atom+Function         Bfn.  Coefficient  Atom+Function  
  ----- ------------  ---------------      ----- ------------  ---------------
     4      1.272094  1 O  s                 26     -0.989063  2 H  s          
    12      0.840054  1 O  py                31     -0.451465  2 H  py         
     3     -0.383369  1 O  s                 25      0.372460  2 H  s          
    24      0.179070  2 H  s                  2     -0.154204  1 O  s          
     9     -0.095764  1 O  py                 6      0.042919  1 O  py         

 Vector   11  Occ=0.000000D+00  E= 1.951185D-01
              MO Center=  1.9D-03, -4.9D-02, -1.1D-13, r^2= 6.3D+00
   Bfn.  Coefficient  Atom+Function         Bfn.  Coefficient  Atom+Function  
  ----- ------------  ---------------      ----- ------------  ---------------
     4      4.604346  1 O  s                 25     -3.684344  2 H  s          
    12     -1.865474  1 O  py                26     -1.178405  2 H  s          
     9     -0.529966  1 O  py                24     -0.278422  2 H  s          
    31     -0.167582  2 H  py                 6     -0.155394  1 O  py         
     3     -0.134298  1 O  s                  2     -0.081880  1 O  s          

 Vector   12  Occ=0.000000D+00  E= 2.640810D-01
              MO Center=  2.6D-02, -6.8D-01, -1.2D-12, r^2= 3.8D+00
   Bfn.  Coefficient  Atom+Function         Bfn.  Coefficient  Atom+Function  
  ----- ------------  ---------------      ----- ------------  ---------------
    32      1.568160  2 H  pz                13     -0.921431  1 O  pz         
    10     -0.342221  1 O  pz                 7     -0.103641  1 O  pz         
    20      0.033357  1 O  d -1              15     -0.030510  1 O  d -1       
    29      0.030394  2 H  pz         

 Vector   13  Occ=0.000000D+00  E= 2.717200D-01
              MO Center=  2.8D-02, -7.2D-01,  1.2D-12, r^2= 3.8D+00
   Bfn.  Coefficient  Atom+Function         Bfn.  Coefficient  Atom+Function  
  ----- ------------  ---------------      ----- ------------  ---------------
    30      1.579140  2 H  px                11     -0.899956  1 O  px         
     8     -0.366761  1 O  px                 5     -0.110819  1 O  px         
    31      0.061203  2 H  py                19      0.045757  1 O  d -2       
    12     -0.034880  1 O  py                27      0.030098  2 H  px         
    14     -0.028954  1 O  d -2       

 Vector   14  Occ=0.000000D+00  E= 4.597300D-01
              MO Center=  4.5D-02, -1.2D+00, -8.1D-15, r^2= 4.0D+00
   Bfn.  Coefficient  Atom+Function         Bfn.  Coefficient  Atom+Function  
  ----- ------------  ---------------      ----- ------------  ---------------
    25     -4.943644  2 H  s                  4      4.704795  1 O  s          
    31     -2.784024  2 H  py                 3      1.891735  1 O  s          
    26     -1.099071  2 H  s                 12     -1.003117  1 O  py         
     9     -0.680919  1 O  py                24     -0.369009  2 H  s          
     6     -0.325012  1 O  py                30      0.107902  2 H  px         

 Vector   15  Occ=0.000000D+00  E= 6.282763D-01
              MO Center=  7.9D-03, -2.0D-01, -1.7D-13, r^2= 3.6D+00
   Bfn.  Coefficient  Atom+Function         Bfn.  Coefficient  Atom+Function  
  ----- ------------  ---------------      ----- ------------  ---------------
    25      6.068977  2 H  s                  4     -4.673659  1 O  s          
    12      1.920568  1 O  py                 3     -1.112580  1 O  s          
    31      1.059016  2 H  py                24     -0.723783  2 H  s          
     9      0.544135  1 O  py                26      0.545622  2 H  s          
    23      0.465051  1 O  d  2              21      0.388158  1 O  d  0       

 Vector   16  Occ=0.000000D+00  E= 7.315967D-01
              MO Center= -4.2D-03,  1.1D-01, -5.8D-13, r^2= 1.5D+00
   Bfn.  Coefficient  Atom+Function         Bfn.  Coefficient  Atom+Function  
  ----- ------------  ---------------      ----- ------------  ---------------
    22      1.000335  1 O  d  1              20     -0.038770  1 O  d -1       

 Vector   17  Occ=0.000000D+00  E= 7.333762D-01
              MO Center= -3.9D-03,  1.0D-01,  8.3D-13, r^2= 1.5D+00
   Bfn.  Coefficient  Atom+Function         Bfn.  Coefficient  Atom+Function  
  ----- ------------  ---------------      ----- ------------  ---------------
    21      0.840997  1 O  d  0              25     -0.721263  2 H  s          
    23     -0.532477  1 O  d  2               4      0.516680  1 O  s          
    12     -0.201014  1 O  py                 3      0.190768  1 O  s          
    31     -0.167212  2 H  py                24      0.098008  2 H  s          
     9     -0.067312  1 O  py                26     -0.056789  2 H  s          

 Vector   18  Occ=0.000000D+00  E= 8.567322D-01
              MO Center= -1.3D-02,  3.4D-01, -6.1D-13, r^2= 2.1D+00
   Bfn.  Coefficient  Atom+Function         Bfn.  Coefficient  Atom+Function  
  ----- ------------  ---------------      ----- ------------  ---------------
    20      1.079602  1 O  d -1              32      0.911111  2 H  pz         
    13     -0.687853  1 O  pz                 7     -0.283466  1 O  pz         
    10      0.217761  1 O  pz                29     -0.058308  2 H  pz         
    22      0.041843  1 O  d  1       

 Vector   19  Occ=0.000000D+00  E= 8.824876D-01
              MO Center= -1.2D-02,  3.1D-01,  3.8D-13, r^2= 2.1D+00
   Bfn.  Coefficient  Atom+Function         Bfn.  Coefficient  Atom+Function  
  ----- ------------  ---------------      ----- ------------  ---------------
    19      1.097312  1 O  d -2              30      0.928425  2 H  px         
    11     -0.669982  1 O  px                 5     -0.253752  1 O  px         
     8      0.160250  1 O  px                23     -0.085186  1 O  d  2       
    27     -0.062788  2 H  px                31      0.035983  2 H  py         
    12     -0.025967  1 O  py         

 Vector   20  Occ=0.000000D+00  E= 1.011026D+00
              MO Center=  1.2D-02, -3.2D-01,  1.1D-12, r^2= 1.7D+00
   Bfn.  Coefficient  Atom+Function         Bfn.  Coefficient  Atom+Function  
  ----- ------------  ---------------      ----- ------------  ---------------
    10      1.466380  1 O  pz                 7     -0.898365  1 O  pz         
    32     -0.756712  2 H  pz                20     -0.471320  1 O  d -1       
    13     -0.126013  1 O  pz         

 Vector   21  Occ=0.000000D+00  E= 1.024923D+00
              MO Center= -1.9D-02,  5.0D-01, -7.1D-13, r^2= 2.0D+00
   Bfn.  Coefficient  Atom+Function         Bfn.  Coefficient  Atom+Function  
  ----- ------------  ---------------      ----- ------------  ---------------
    25      4.363418  2 H  s                  4     -3.434305  1 O  s          
     9      1.674158  1 O  py                31      1.491210  2 H  py         
     3     -1.230987  1 O  s                  6     -0.678268  1 O  py         
    12      0.545549  1 O  py                26      0.473181  2 H  s          
    23     -0.452201  1 O  d  2              28      0.390087  2 H  py         

 Vector   22  Occ=0.000000D+00  E= 1.055613D+00
              MO Center=  1.1D-02, -2.8D-01, -3.1D-13, r^2= 1.6D+00
   Bfn.  Coefficient  Atom+Function         Bfn.  Coefficient  Atom+Function  
  ----- ------------  ---------------      ----- ------------  ---------------
     8      1.457179  1 O  px                 5     -0.921326  1 O  px         
    30     -0.708547  2 H  px                19     -0.426191  1 O  d -2       
    11     -0.145353  1 O  px                 9      0.056477  1 O  py         
     6     -0.035708  1 O  py                23      0.033086  1 O  d  2       
    27      0.029405  2 H  px                31     -0.027462  2 H  py         

 Vector   23  Occ=0.000000D+00  E= 1.351391D+00
              MO Center=  2.3D-03, -5.9D-02, -1.6D-14, r^2= 1.8D+00
   Bfn.  Coefficient  Atom+Function         Bfn.  Coefficient  Atom+Function  
  ----- ------------  ---------------      ----- ------------  ---------------
    24      1.473922  2 H  s                  3      1.282872  1 O  s          
     9      1.179442  1 O  py                23      0.964789  1 O  d  2       
     2     -0.875381  1 O  s                 25     -0.764161  2 H  s          
     4     -0.553130  1 O  s                 21      0.538985  1 O  d  0       
    31     -0.491644  2 H  py                 6     -0.396311  1 O  py         

 Vector   24  Occ=0.000000D+00  E= 1.705612D+00
              MO Center=  2.5D-02, -6.3D-01,  1.0D-13, r^2= 1.1D+00
   Bfn.  Coefficient  Atom+Function         Bfn.  Coefficient  Atom+Function  
  ----- ------------  ---------------      ----- ------------  ---------------
    29      1.359236  2 H  pz                20      0.796939  1 O  d -1       
    10     -0.526699  1 O  pz                32     -0.141670  2 H  pz         
    13      0.130648  1 O  pz                15     -0.068438  1 O  d -1       
    22      0.030887  1 O  d  1       

 Vector   25  Occ=0.000000D+00  E= 1.719679D+00
              MO Center=  2.4D-02, -6.3D-01, -8.5D-14, r^2= 1.1D+00
   Bfn.  Coefficient  Atom+Function         Bfn.  Coefficient  Atom+Function  
  ----- ------------  ---------------      ----- ------------  ---------------
    27      1.358164  2 H  px                19      0.797901  1 O  d -2       
     8     -0.534068  1 O  px                30     -0.137893  2 H  px         
    11      0.130554  1 O  px                14     -0.066235  1 O  d -2       
    23     -0.061942  1 O  d  2              28      0.052639  2 H  py         

 Vector   26  Occ=0.000000D+00  E= 2.087898D+00
              MO Center=  2.8D-02, -7.3D-01, -1.0D-15, r^2= 9.8D-01
   Bfn.  Coefficient  Atom+Function         Bfn.  Coefficient  Atom+Function  
  ----- ------------  ---------------      ----- ------------  ---------------
    25     -2.100245  2 H  s                  3      2.060686  1 O  s          
     4      1.438285  1 O  s                  2     -1.404776  1 O  s          
    31     -1.316155  2 H  py                28      1.007177  2 H  py         
     9     -0.692370  1 O  py                 6      0.669984  1 O  py         
     1     -0.630025  1 O  s                 26     -0.283331  2 H  s          

 Vector   27  Occ=0.000000D+00  E= 2.391468D+00
              MO Center=  1.0D-02, -2.6D-01, -1.7D-14, r^2= 1.7D+00
   Bfn.  Coefficient  Atom+Function         Bfn.  Coefficient  Atom+Function  
  ----- ------------  ---------------      ----- ------------  ---------------
    25      5.236485  2 H  s                  3     -4.650010  1 O  s          
     4     -3.605686  1 O  s                  9      2.739308  1 O  py         
    24      2.429336  2 H  s                 31      1.507988  2 H  py         
     2      1.374027  1 O  s                 23      1.213712  1 O  d  2       
    12      1.117560  1 O  py                28      1.081082  2 H  py         

 Vector   28  Occ=0.000000D+00  E= 3.022118D+00
              MO Center= -4.1D-03,  1.1D-01,  7.2D-14, r^2= 6.3D-01
   Bfn.  Coefficient  Atom+Function         Bfn.  Coefficient  Atom+Function  
  ----- ------------  ---------------      ----- ------------  ---------------
    16      1.033688  1 O  d  0              18     -0.536443  1 O  d  2       
    21     -0.502399  1 O  d  0              23      0.322588  1 O  d  2       
     3     -0.209978  1 O  s                 25      0.205075  2 H  s          
    24      0.139432  2 H  s                  4     -0.135524  1 O  s          
     9      0.135762  1 O  py                28      0.091921  2 H  py         

 Vector   29  Occ=0.000000D+00  E= 3.022355D+00
              MO Center= -4.2D-03,  1.1D-01, -6.5D-14, r^2= 6.3D-01
   Bfn.  Coefficient  Atom+Function         Bfn.  Coefficient  Atom+Function  
  ----- ------------  ---------------      ----- ------------  ---------------
    17      1.165092  1 O  d  1              22     -0.597304  1 O  d  1       
    15     -0.045156  1 O  d -1       

 Vector   30  Occ=0.000000D+00  E= 3.122971D+00
              MO Center= -3.4D-03,  8.9D-02,  1.4D-13, r^2= 7.7D-01
   Bfn.  Coefficient  Atom+Function         Bfn.  Coefficient  Atom+Function  
  ----- ------------  ---------------      ----- ------------  ---------------
    15      1.198255  1 O  d -1              20     -0.721302  1 O  d -1       
    32     -0.472430  2 H  pz                13      0.244844  1 O  pz         
    29      0.160506  2 H  pz                10      0.123272  1 O  pz         
    17      0.046441  1 O  d  1               7     -0.029882  1 O  pz         
    22     -0.027956  1 O  d  1       

 Vector   31  Occ=0.000000D+00  E= 3.177550D+00
              MO Center= -3.5D-03,  8.9D-02, -1.4D-13, r^2= 7.6D-01
   Bfn.  Coefficient  Atom+Function         Bfn.  Coefficient  Atom+Function  
  ----- ------------  ---------------      ----- ------------  ---------------
    14      1.195799  1 O  d -2              19     -0.712968  1 O  d -2       
    30     -0.465618  2 H  px                11      0.241173  1 O  px         
    27      0.157684  2 H  px                 8      0.122183  1 O  px         
    18     -0.092832  1 O  d  2              23      0.055349  1 O  d  2       
     5     -0.030226  1 O  px         

 Vector   32  Occ=0.000000D+00  E= 3.597079D+00
              MO Center=  6.2D-04, -1.6D-02,  5.9D-16, r^2= 8.8D-01
   Bfn.  Coefficient  Atom+Function         Bfn.  Coefficient  Atom+Function  
  ----- ------------  ---------------      ----- ------------  ---------------
     3      2.826422  1 O  s                 25     -2.371434  2 H  s          
    24     -1.806336  2 H  s                  9     -1.709621  1 O  py         
     4      1.499314  1 O  s                 28     -1.216305  2 H  py         
    18     -1.121009  1 O  d  2              31     -0.868506  2 H  py         
    16     -0.586432  1 O  d  0               2     -0.509719  1 O  s          


                     DFT Final Beta Molecular Orbital Analysis
                     -----------------------------------------

 Vector    1  Occ=1.000000D+00  E=-1.882797D+01
              MO Center= -4.2D-03,  1.1D-01, -5.2D-18, r^2= 1.5D-02
   Bfn.  Coefficient  Atom+Function         Bfn.  Coefficient  Atom+Function  
  ----- ------------  ---------------      ----- ------------  ---------------
     1      1.004422  1 O  s          

 Vector    2  Occ=1.000000D+00  E=-8.807414D-01
              MO Center=  4.8D-03, -1.2D-01, -8.5D-15, r^2= 4.7D-01
   Bfn.  Coefficient  Atom+Function         Bfn.  Coefficient  Atom+Function  
  ----- ------------  ---------------      ----- ------------  ---------------
     2      0.457931  1 O  s                  3      0.423130  1 O  s          
    24      0.271368  2 H  s                  6     -0.124689  1 O  py         
     4      0.046567  1 O  s                 28      0.045799  2 H  py         
    25     -0.025386  2 H  s          

 Vector    3  Occ=1.000000D+00  E=-4.072549D-01
              MO Center= -2.6D-03,  6.8D-02, -1.2D-14, r^2= 7.6D-01
   Bfn.  Coefficient  Atom+Function         Bfn.  Coefficient  Atom+Function  
  ----- ------------  ---------------      ----- ------------  ---------------
     6      0.528506  1 O  py                24     -0.399953  2 H  s          
     3      0.338466  1 O  s                  9      0.223942  1 O  py         
     2      0.172116  1 O  s                 25     -0.135274  2 H  s          
     4      0.114779  1 O  s                 12      0.032735  1 O  py         
    28     -0.032567  2 H  py         

 Vector    4  Occ=1.000000D+00  E=-2.696580D-01
              MO Center= -2.6D-03,  6.8D-02, -2.6D-15, r^2= 7.0D-01
   Bfn.  Coefficient  Atom+Function         Bfn.  Coefficient  Atom+Function  
  ----- ------------  ---------------      ----- ------------  ---------------
     5      0.646996  1 O  px                 8      0.419658  1 O  px         
    11      0.102948  1 O  px                30      0.033865  2 H  px         
    27      0.030407  2 H  px                 6      0.025076  1 O  py         

 Vector    5  Occ=0.000000D+00  E=-2.390036D-01
              MO Center= -2.5D-03,  6.5D-02,  2.9D-14, r^2= 7.6D-01
   Bfn.  Coefficient  Atom+Function         Bfn.  Coefficient  Atom+Function  
  ----- ------------  ---------------      ----- ------------  ---------------
     7      0.627224  1 O  pz                10      0.427011  1 O  pz         
    13      0.118047  1 O  pz                32      0.040938  2 H  pz         
    29      0.033881  2 H  pz         

 Vector    6  Occ=0.000000D+00  E=-2.447997D-02
              MO Center=  4.5D-02, -1.2D+00, -1.7D-13, r^2= 6.4D+00
   Bfn.  Coefficient  Atom+Function         Bfn.  Coefficient  Atom+Function  
  ----- ------------  ---------------      ----- ------------  ---------------
    26      1.014288  2 H  s                 25      0.437778  2 H  s          
     4     -0.385093  1 O  s                  3     -0.228594  1 O  s          
     6      0.182605  1 O  py                 9      0.157863  1 O  py         
     2     -0.121994  1 O  s                 12      0.106828  1 O  py         
    24      0.087352  2 H  s                 31     -0.074297  2 H  py         

 Vector    7  Occ=0.000000D+00  E= 9.131367D-02
              MO Center=  4.1D-03, -1.1D-01, -3.1D-12, r^2= 8.4D+00
   Bfn.  Coefficient  Atom+Function         Bfn.  Coefficient  Atom+Function  
  ----- ------------  ---------------      ----- ------------  ---------------
     4      1.939369  1 O  s                 26     -1.384621  2 H  s          
    12     -1.175917  1 O  py                25     -0.983167  2 H  s          
    31     -0.660496  2 H  py                 6      0.311518  1 O  py         
     3      0.212631  1 O  s                  9      0.121952  1 O  py         
    24      0.111939  2 H  s                  2     -0.072020  1 O  s          

 Vector    8  Occ=0.000000D+00  E= 1.119076D-01
              MO Center= -7.2D-03,  1.9D-01,  8.2D-12, r^2= 5.7D+00
   Bfn.  Coefficient  Atom+Function         Bfn.  Coefficient  Atom+Function  
  ----- ------------  ---------------      ----- ------------  ---------------
    11      1.168559  1 O  px                 8     -0.311258  1 O  px         
     5     -0.255494  1 O  px                30     -0.103103  2 H  px         
    12      0.045290  1 O  py         

 Vector    9  Occ=0.000000D+00  E= 1.233995D-01
              MO Center= -7.4D-03,  1.9D-01, -5.8D-12, r^2= 5.7D+00
   Bfn.  Coefficient  Atom+Function         Bfn.  Coefficient  Atom+Function  
  ----- ------------  ---------------      ----- ------------  ---------------
    13      1.172882  1 O  pz                10     -0.329289  1 O  pz         
     7     -0.263881  1 O  pz                32     -0.108309  2 H  pz         

 Vector   10  Occ=0.000000D+00  E= 1.264708D-01
              MO Center= -4.0D-04,  1.0D-02,  1.2D-12, r^2= 7.4D+00
   Bfn.  Coefficient  Atom+Function         Bfn.  Coefficient  Atom+Function  
  ----- ------------  ---------------      ----- ------------  ---------------
     4      1.187376  1 O  s                 26     -0.962622  2 H  s          
    12      0.878254  1 O  py                31     -0.483668  2 H  py         
    25      0.447679  2 H  s                  3     -0.379768  1 O  s          
    24      0.182656  2 H  s                  2     -0.151409  1 O  s          
     9     -0.083973  1 O  py                 6      0.053341  1 O  py         

 Vector   11  Occ=0.000000D+00  E= 2.045770D-01
              MO Center=  2.4D-03, -6.2D-02, -4.8D-13, r^2= 6.2D+00
   Bfn.  Coefficient  Atom+Function         Bfn.  Coefficient  Atom+Function  
  ----- ------------  ---------------      ----- ------------  ---------------
     4      4.672601  1 O  s                 25     -3.713022  2 H  s          
    12     -1.836030  1 O  py                26     -1.183842  2 H  s          
     9     -0.544527  1 O  py                24     -0.269025  2 H  s          
    31     -0.194545  2 H  py                 6     -0.158652  1 O  py         
     3     -0.151175  1 O  s                  2     -0.081469  1 O  s          

 Vector   12  Occ=0.000000D+00  E= 2.717778D-01
              MO Center=  2.8D-02, -7.3D-01,  1.3D-12, r^2= 3.7D+00
   Bfn.  Coefficient  Atom+Function         Bfn.  Coefficient  Atom+Function  
  ----- ------------  ---------------      ----- ------------  ---------------
    30      1.581177  2 H  px                11     -0.892094  1 O  px         
     8     -0.376738  1 O  px                 5     -0.113403  1 O  px         
    31      0.061282  2 H  py                19      0.048726  1 O  d -2       
    12     -0.034575  1 O  py                27      0.031355  2 H  px         
    14     -0.028593  1 O  d -2       

 Vector   13  Occ=0.000000D+00  E= 2.751167D-01
              MO Center=  2.8D-02, -7.3D-01, -1.1D-12, r^2= 3.7D+00
   Bfn.  Coefficient  Atom+Function         Bfn.  Coefficient  Atom+Function  
  ----- ------------  ---------------      ----- ------------  ---------------
    32      1.582245  2 H  pz                13     -0.885947  1 O  pz         
    10     -0.389228  1 O  pz                 7     -0.115106  1 O  pz         
    20      0.048388  1 O  d -1              29      0.032020  2 H  pz         
    15     -0.028434  1 O  d -1       

 Vector   14  Occ=0.000000D+00  E= 4.687193D-01
              MO Center=  4.5D-02, -1.2D+00, -2.1D-14, r^2= 3.9D+00
   Bfn.  Coefficient  Atom+Function         Bfn.  Coefficient  Atom+Function  
  ----- ------------  ---------------      ----- ------------  ---------------
    25     -4.877647  2 H  s                  4      4.602033  1 O  s          
    31     -2.771884  2 H  py                 3      1.918076  1 O  s          
    26     -1.069690  2 H  s                 12     -0.967833  1 O  py         
     9     -0.682819  1 O  py                24     -0.375705  2 H  s          
     6     -0.330864  1 O  py                30      0.107431  2 H  px         

 Vector   15  Occ=0.000000D+00  E= 6.375605D-01
              MO Center=  8.4D-03, -2.2D-01,  2.0D-14, r^2= 3.6D+00
   Bfn.  Coefficient  Atom+Function         Bfn.  Coefficient  Atom+Function  
  ----- ------------  ---------------      ----- ------------  ---------------
    25      6.193756  2 H  s                  4     -4.754716  1 O  s          
    12      1.936435  1 O  py                 3     -1.177767  1 O  s          
    31      1.123842  2 H  py                24     -0.738620  2 H  s          
     9      0.557821  1 O  py                26      0.556460  2 H  s          
    23      0.520036  1 O  d  2              21      0.269189  1 O  d  0       

 Vector   16  Occ=0.000000D+00  E= 7.621466D-01
              MO Center= -4.2D-03,  1.1D-01, -7.3D-13, r^2= 1.5D+00
   Bfn.  Coefficient  Atom+Function         Bfn.  Coefficient  Atom+Function  
  ----- ------------  ---------------      ----- ------------  ---------------
    22      1.005148  1 O  d  1              20     -0.038957  1 O  d -1       

 Vector   17  Occ=0.000000D+00  E= 7.682968D-01
              MO Center= -4.2D-03,  1.1D-01,  6.8D-13, r^2= 1.5D+00
   Bfn.  Coefficient  Atom+Function         Bfn.  Coefficient  Atom+Function  
  ----- ------------  ---------------      ----- ------------  ---------------
    21      0.876531  1 O  d  0              23     -0.493408  1 O  d  2       
    25      0.201450  2 H  s                  4     -0.143011  1 O  s          
     3     -0.053988  1 O  s                 12      0.052334  1 O  py         
    31      0.047972  2 H  py                19     -0.038304  1 O  d -2       
    24     -0.027928  2 H  s          

 Vector   18  Occ=0.000000D+00  E= 8.867814D-01
              MO Center= -1.1D-02,  2.9D-01,  5.4D-13, r^2= 2.1D+00
   Bfn.  Coefficient  Atom+Function         Bfn.  Coefficient  Atom+Function  
  ----- ------------  ---------------      ----- ------------  ---------------
    19      1.103633  1 O  d -2              30      0.938565  2 H  px         
    11     -0.665499  1 O  px                 5     -0.242324  1 O  px         
     8      0.136979  1 O  px                23     -0.085677  1 O  d  2       
    27     -0.065958  2 H  px                31      0.036376  2 H  py         
    12     -0.025793  1 O  py         

 Vector   19  Occ=0.000000D+00  E= 8.921796D-01
              MO Center= -1.0D-02,  2.7D-01, -5.0D-13, r^2= 2.1D+00
   Bfn.  Coefficient  Atom+Function         Bfn.  Coefficient  Atom+Function  
  ----- ------------  ---------------      ----- ------------  ---------------
    20      1.116180  1 O  d -1              32      0.960701  2 H  pz         
    13     -0.663078  1 O  pz                 7     -0.223077  1 O  pz         
    10      0.096546  1 O  pz                29     -0.068940  2 H  pz         
    22      0.043260  1 O  d  1       

 Vector   20  Occ=0.000000D+00  E= 1.036204D+00
              MO Center= -1.9D-02,  5.0D-01, -1.2D-13, r^2= 2.0D+00
   Bfn.  Coefficient  Atom+Function         Bfn.  Coefficient  Atom+Function  
  ----- ------------  ---------------      ----- ------------  ---------------
    25      4.306699  2 H  s                  4     -3.371525  1 O  s          
     9      1.646641  1 O  py                31      1.479800  2 H  py         
     3     -1.234796  1 O  s                  6     -0.675093  1 O  py         
    12      0.530616  1 O  py                23     -0.460933  1 O  d  2       
    26      0.461493  2 H  s                 28      0.395011  2 H  py         

 Vector   21  Occ=0.000000D+00  E= 1.070747D+00
              MO Center=  1.0D-02, -2.6D-01, -3.5D-13, r^2= 1.6D+00
   Bfn.  Coefficient  Atom+Function         Bfn.  Coefficient  Atom+Function  
  ----- ------------  ---------------      ----- ------------  ---------------
     8      1.452124  1 O  px                 5     -0.930582  1 O  px         
    30     -0.690231  2 H  px                19     -0.406344  1 O  d -2       
    11     -0.152960  1 O  px                 9      0.056281  1 O  py         
     6     -0.036067  1 O  py                27      0.033714  2 H  px         
    23      0.031545  1 O  d  2              31     -0.026752  2 H  py         

 Vector   22  Occ=0.000000D+00  E= 1.095904D+00
              MO Center=  9.1D-03, -2.3D-01,  5.0D-13, r^2= 1.6D+00
   Bfn.  Coefficient  Atom+Function         Bfn.  Coefficient  Atom+Function  
  ----- ------------  ---------------      ----- ------------  ---------------
    10      1.445174  1 O  pz                 7     -0.947285  1 O  pz         
    32     -0.660479  2 H  pz                20     -0.375333  1 O  d -1       
    13     -0.167762  1 O  pz                29      0.036313  2 H  pz         

 Vector   23  Occ=0.000000D+00  E= 1.376963D+00
              MO Center=  1.7D-03, -4.5D-02, -6.8D-14, r^2= 1.8D+00
   Bfn.  Coefficient  Atom+Function         Bfn.  Coefficient  Atom+Function  
  ----- ------------  ---------------      ----- ------------  ---------------
    24      1.485919  2 H  s                  9      1.245702  1 O  py         
     3      1.164491  1 O  s                 23      0.962968  1 O  d  2       
     2     -0.843672  1 O  s                  4     -0.697961  1 O  s          
    21      0.561569  1 O  d  0              25     -0.554338  2 H  s          
     6     -0.414154  1 O  py                31     -0.415416  2 H  py         

 Vector   24  Occ=0.000000D+00  E= 1.717452D+00
              MO Center=  2.4D-02, -6.3D-01, -7.7D-14, r^2= 1.1D+00
   Bfn.  Coefficient  Atom+Function         Bfn.  Coefficient  Atom+Function  
  ----- ------------  ---------------      ----- ------------  ---------------
    27      1.357978  2 H  px                19      0.800740  1 O  d -2       
     8     -0.539741  1 O  px                30     -0.135783  2 H  px         
    11      0.130956  1 O  px                14     -0.065123  1 O  d -2       
    23     -0.062163  1 O  d  2              28      0.052632  2 H  py         

 Vector   25  Occ=0.000000D+00  E= 1.719054D+00
              MO Center=  2.4D-02, -6.3D-01,  7.1D-14, r^2= 1.1D+00
   Bfn.  Coefficient  Atom+Function         Bfn.  Coefficient  Atom+Function  
  ----- ------------  ---------------      ----- ------------  ---------------
    29      1.358714  2 H  pz                20      0.805263  1 O  d -1       
    10     -0.545589  1 O  pz                32     -0.133476  2 H  pz         
    13      0.131259  1 O  pz                15     -0.065158  1 O  d -1       
    22      0.031210  1 O  d  1       

 Vector   26  Occ=0.000000D+00  E= 2.114613D+00
              MO Center=  2.8D-02, -7.3D-01,  1.1D-15, r^2= 9.5D-01
   Bfn.  Coefficient  Atom+Function         Bfn.  Coefficient  Atom+Function  
  ----- ------------  ---------------      ----- ------------  ---------------
     3      1.854299  1 O  s                 25     -1.860645  2 H  s          
     2     -1.365755  1 O  s                  4      1.259174  1 O  s          
    31     -1.241150  2 H  py                28      1.056183  2 H  py         
     6      0.676928  1 O  py                 1     -0.605520  1 O  s          
     9     -0.548412  1 O  py                26     -0.258595  2 H  s          

 Vector   27  Occ=0.000000D+00  E= 2.410456D+00
              MO Center=  9.8D-03, -2.5D-01,  5.1D-15, r^2= 1.7D+00
   Bfn.  Coefficient  Atom+Function         Bfn.  Coefficient  Atom+Function  
  ----- ------------  ---------------      ----- ------------  ---------------
    25      5.325040  2 H  s                  3     -4.752275  1 O  s          
     4     -3.655754  1 O  s                  9      2.768012  1 O  py         
    24      2.429065  2 H  s                 31      1.564371  2 H  py         
     2      1.432783  1 O  s                 23      1.213946  1 O  d  2       
    12      1.125434  1 O  py                28      1.052774  2 H  py         

 Vector   28  Occ=0.000000D+00  E= 3.097601D+00
              MO Center= -4.2D-03,  1.1D-01, -9.9D-14, r^2= 6.2D-01
   Bfn.  Coefficient  Atom+Function         Bfn.  Coefficient  Atom+Function  
  ----- ------------  ---------------      ----- ------------  ---------------
    17      1.165036  1 O  d  1              22     -0.589170  1 O  d  1       
    15     -0.045154  1 O  d -1       

 Vector   29  Occ=0.000000D+00  E= 3.115058D+00
              MO Center= -4.2D-03,  1.1D-01,  1.1D-13, r^2= 6.2D-01
   Bfn.  Coefficient  Atom+Function         Bfn.  Coefficient  Atom+Function  
  ----- ------------  ---------------      ----- ------------  ---------------
    16      0.994946  1 O  d  0              18     -0.605802  1 O  d  2       
    21     -0.513139  1 O  d  0              23      0.285485  1 O  d  2       
     3      0.080295  1 O  s                 25     -0.073603  2 H  s          
    24     -0.060748  2 H  s                  9     -0.055374  1 O  py         
     4      0.048540  1 O  s                 14     -0.047029  1 O  d -2       

 Vector   30  Occ=0.000000D+00  E= 3.189778D+00
              MO Center= -3.5D-03,  9.0D-02, -1.0D-13, r^2= 7.6D-01
   Bfn.  Coefficient  Atom+Function         Bfn.  Coefficient  Atom+Function  
  ----- ------------  ---------------      ----- ------------  ---------------
    14      1.195890  1 O  d -2              19     -0.711459  1 O  d -2       
    30     -0.463961  2 H  px                11      0.240242  1 O  px         
    27      0.156369  2 H  px                 8      0.122319  1 O  px         
    18     -0.092839  1 O  d  2              23      0.055232  1 O  d  2       
     5     -0.031037  1 O  px         

 Vector   31  Occ=0.000000D+00  E= 3.200943D+00
              MO Center= -3.4D-03,  8.9D-02,  9.4D-14, r^2= 7.6D-01
   Bfn.  Coefficient  Atom+Function         Bfn.  Coefficient  Atom+Function  
  ----- ------------  ---------------      ----- ------------  ---------------
    15      1.198618  1 O  d -1              20     -0.711955  1 O  d -1       
    32     -0.463875  2 H  pz                13      0.240107  1 O  pz         
    29      0.156340  2 H  pz                10      0.123006  1 O  pz         
    17      0.046455  1 O  d  1               7     -0.033155  1 O  pz         
    22     -0.027594  1 O  d  1       

 Vector   32  Occ=0.000000D+00  E= 3.627821D+00
              MO Center=  3.2D-04, -8.1D-03, -5.9D-15, r^2= 8.7D-01
   Bfn.  Coefficient  Atom+Function         Bfn.  Coefficient  Atom+Function  
  ----- ------------  ---------------      ----- ------------  ---------------
     3      2.816254  1 O  s                 25     -2.352621  2 H  s          
    24     -1.786325  2 H  s                  9     -1.693126  1 O  py         
     4      1.483840  1 O  s                 28     -1.199162  2 H  py         
    18     -1.083036  1 O  d  2              31     -0.867478  2 H  py         
    16     -0.659970  1 O  d  0               2     -0.525675  1 O  s          


   alpha - beta orbital overlaps 
   ----------------------------- 


   alpha      1      2      3      4      5      6      7      8      9     10
    beta      1      2      3      5      4      6      7      9      8     10
 overlap   1.000  0.999  0.999  0.996  1.000  0.999  0.999  0.996  1.000  0.999


   alpha     11     12     13     14     15     16     17     18     19     20
    beta     11     13     12     14     15     16     17     19     18     22
 overlap   0.999  0.999  1.000  0.999  0.991  1.000  0.990  0.997  1.000  0.996


   alpha     21     22     23     24     25     26     27     28     29     30
    beta     20     21     23     25     24     26     27     29     28     31
 overlap   1.000  1.000  0.999  1.000  1.000  0.999  0.999  0.997  1.000  1.000


   alpha     31     32
    beta     30     32
 overlap   1.000  0.997

     --------------------------
     Expectation value of S2:  
     --------------------------
      <S2> =      0.7521 (Exact =     0.7500)


 center of mass
 --------------
 x =  -0.00368501 y =   0.09507872 z =   0.00000000

 moments of inertia (a.u.)
 ------------------
           3.189612944753           0.123621384939           0.000000000000
           0.123621384939           0.004791254324           0.000000000000
           0.000000000000           0.000000000000           3.194404199078

     Multipole analysis of the density
     ---------------------------------

     L   x y z        total         alpha         beta         nuclear
     -   - - -        -----         -----         ----         -------
     0   0 0 0     -0.000000     -5.000000     -4.000000      9.000000

     1   1 0 0      0.024223      0.015432      0.008790     -0.000000
     1   0 1 0     -0.624980     -0.398175     -0.226806      0.000000
     1   0 0 1      0.000000      0.000000      0.000000      0.000000

     2   2 0 0     -5.236278     -2.772125     -2.468645      0.004492
     2   1 1 0     -0.062087      0.026869      0.026946     -0.115903
     2   1 0 1     -0.001014     -0.000063     -0.000951      0.000000
     2   0 2 0     -3.636750     -3.464346     -3.162859      2.990455
     2   0 1 1     -0.000039     -0.000002     -0.000037      0.000000
     2   0 0 2     -4.177949     -2.705173     -1.472775      0.000000


            General Information
            -------------------
          SCF calculation type: DFT
          Wavefunction type:  spin polarized.
          No. of atoms     :     2
          No. of electrons :     9
           Alpha electrons :     5
            Beta electrons :     4
          Charge           :     0
          Spin multiplicity:     2
          Use of symmetry is: off; symmetry adaption is: off
          Maximum number of iterations: 500
          This is a Direct SCF calculation.
          AO basis - number of functions:    32
                     number of shells:    14
          Convergence on energy requested:  1.00D-06
          Convergence on density requested:  1.00D-05
          Convergence on gradient requested:  5.00D-04

              XC Information
              --------------
          PerdewBurkeErnzerhof Exchange Functional  1.000          
            Perdew 1991 LDA Correlation Functional  1.000 local    
           PerdewBurkeErnz. Correlation Functional  1.000 non-local

             Grid Information
             ----------------
          Grid used for XC integration:  medium    
          Radial quadrature: Mura-Knowles        
          Angular quadrature: Lebedev. 
          Tag              B.-S. Rad. Rad. Pts. Rad. Cut. Ang. Pts.
          ---              ---------- --------- --------- ---------
          O                   0.60       49           9.0       434
          H                   0.35       45           9.0       434
          Grid pruning is: on 
          Number of quadrature shells:    94
          Spatial weights used:  Erf1

          Convergence Information
          -----------------------
          Convergence aids based upon iterative change in 
          total energy or number of iterations. 
          Levelshifting, if invoked, occurs when the 
          HOMO/LUMO gap drops below (HL_TOL):  1.00D-02
          DIIS, if invoked, will attempt to extrapolate 
          using up to (NFOCK): 10 stored Fock matrices.

                    Damping( 0%)  Levelshifting(0.5)       DIIS
                  --------------- ------------------- ---------------
          dE  on:    start            ASAP                start   
          dE off:    2 iters        500 iters           500 iters 


      Screening Tolerance Information
      -------------------------------
          Density screening/tol_rho:  1.00D-10
          AO Gaussian exp screening on grid/accAOfunc:  14
          CD Gaussian exp screening on grid/accCDfunc:  20
          XC Gaussian exp screening on grid/accXCfunc:  20
          Schwarz screening/accCoul:  1.00D-08

  texas integral default override: limxmem =             50000000
  texas integral default override: limxmem =             50000000


                            NWChem DFT Gradient Module
                            --------------------------



  charge          =   0.00
  wavefunction    = open shell

  texas integral default override: limxmem =             50000000
  texas integral default override: limxmem =             50000000


                         DFT ENERGY GRADIENTS

    atom               coordinates                        gradient
                 x          y          z           x          y          z
   1 O      -0.007899   0.203799   0.000000    0.000606  -0.015639   0.000000
   2 H       0.063190  -1.630393   0.000000   -0.000606   0.015639  -0.000000

                 ----------------------------------------
                 |  Time  |  1-e(secs)   |  2-e(secs)   |
                 ----------------------------------------
                 |  CPU   |       0.00   |       0.06   |
                 ----------------------------------------
                 |  WALL  |       0.00   |       0.06   |
                 ----------------------------------------
  no constraints, skipping    0.0000000000000000     

@ Step       Energy      Delta E   Gmax     Grms     Xrms     Xmax   Walltime
@ ---- ---------------- -------- -------- -------- -------- -------- --------
@    0     -75.66321655  0.0D+00  0.01565  0.01565  0.00000  0.00000      1.1
                                                                    



                                Z-matrix (autoz)
                                -------- 

 Units are Angstrom for bonds and degrees for angles

      Type          Name      I     J     K     L     M      Value     Gradient
      ----------- --------  ----- ----- ----- ----- ----- ---------- ----------
    1 Stretch                  1     2                       0.97134   -0.01565

  no constraints, skipping    0.0000000000000000     
  no constraints, skipping    0.0000000000000000     
  no constraints, skipping    0.0000000000000000     

                                 NWChem DFT Module
                                 -----------------




 Summary of "ao basis" -> "cc-pvdz" (spherical)
 ------------------------------------------------------------------------------
       Tag                 Description            Shells   Functions and Types
 ---------------- ------------------------------  ------  ---------------------
 O                        aug-cc-pvdz                9       23   4s3p2d
 H                        aug-cc-pvdz                5        9   3s2p


  texas integral default override: limxmem =             50000000
  Caching 1-el integrals 

            General Information
            -------------------
          SCF calculation type: DFT
          Wavefunction type:  spin polarized.
          No. of atoms     :     2
          No. of electrons :     9
           Alpha electrons :     5
            Beta electrons :     4
          Charge           :     0
          Spin multiplicity:     2
          Use of symmetry is: off; symmetry adaption is: off
          Maximum number of iterations: 500
          This is a Direct SCF calculation.
          AO basis - number of functions:    32
                     number of shells:    14
          Convergence on energy requested:  1.00D-06
          Convergence on density requested:  1.00D-05
          Convergence on gradient requested:  5.00D-04

              XC Information
              --------------
          PerdewBurkeErnzerhof Exchange Functional  1.000          
            Perdew 1991 LDA Correlation Functional  1.000 local    
           PerdewBurkeErnz. Correlation Functional  1.000 non-local

             Grid Information
             ----------------
          Grid used for XC integration:  medium    
          Radial quadrature: Mura-Knowles        
          Angular quadrature: Lebedev. 
          Tag              B.-S. Rad. Rad. Pts. Rad. Cut. Ang. Pts.
          ---              ---------- --------- --------- ---------
          O                   0.60       49           9.0       434
          H                   0.35       45           9.0       434
          Grid pruning is: on 
          Number of quadrature shells:    94
          Spatial weights used:  Erf1

          Convergence Information
          -----------------------
          Convergence aids based upon iterative change in 
          total energy or number of iterations. 
          Levelshifting, if invoked, occurs when the 
          HOMO/LUMO gap drops below (HL_TOL):  1.00D-02
          DIIS, if invoked, will attempt to extrapolate 
          using up to (NFOCK): 10 stored Fock matrices.

                    Damping( 0%)  Levelshifting(0.5)       DIIS
                  --------------- ------------------- ---------------
          dE  on:    start            ASAP                start   
          dE off:    2 iters        500 iters           500 iters 


      Screening Tolerance Information
      -------------------------------
          Density screening/tol_rho:  1.00D-10
          AO Gaussian exp screening on grid/accAOfunc:  14
          CD Gaussian exp screening on grid/accCDfunc:  20
          XC Gaussian exp screening on grid/accXCfunc:  20
          Schwarz screening/accCoul:  1.00D-08


 Loading old vectors from job with title :



   Time after variat. SCF:      1.2
   Time prior to 1st pass:      1.2

 Grid_pts file          = ./oh-aug-dat.gridpts.00
 Record size in doubles =  12289        No. of grid_pts per rec  =   3070
 Max. records in memory =      2        Max. recs in file   =   4694705


           Memory utilization after 1st SCF pass: 
           Heap Space remaining (MW):       13.08            13080780
          Stack Space remaining (MW):       65.54            65535604

   convergence    iter        energy       DeltaE   RMS-Dens  Diis-err    time
 ---------------- ----- ----------------- --------- --------- ---------  ------
 d= 0,ls=0.0,diis     1    -75.6632539478 -7.99D+01  6.74D-04  4.14D-04     1.3
                                                     6.83D-04  3.95D-04
 d= 0,ls=0.0,diis     2    -75.6634205375 -1.67D-04  1.21D-04  2.38D-05     1.4
                                                     1.13D-04  1.83D-05
 d= 0,ls=0.0,diis     3    -75.6634232584 -2.72D-06  6.53D-05  1.75D-05     1.5
                                                     6.09D-05  1.41D-05
 d= 0,ls=0.0,diis     4    -75.6634290375 -5.78D-06  1.88D-05  1.42D-06     1.5
                                                     1.77D-05  1.07D-06
 d= 0,ls=0.0,diis     5    -75.6634295795 -5.42D-07  9.39D-07  4.14D-09     1.6
                                                     1.47D-06  5.00D-09


         Total DFT energy =      -75.663429579516
      One electron energy =     -112.316315765799
           Coulomb energy =       41.173512716332
    Exchange-Corr. energy =       -8.775941816524
 Nuclear repulsion energy =        4.255315286475

 Numeric. integr. density =        8.999999473644

     Total iterative time =      0.4s



                    DFT Final Alpha Molecular Orbital Analysis
                    ------------------------------------------

 Vector    1  Occ=1.000000D+00  E=-1.885250D+01
              MO Center= -4.6D-03,  1.2D-01, -1.9D-18, r^2= 1.5D-02
   Bfn.  Coefficient  Atom+Function         Bfn.  Coefficient  Atom+Function  
  ----- ------------  ---------------      ----- ------------  ---------------
     1      1.004833  1 O  s          

 Vector    2  Occ=1.000000D+00  E=-9.324640D-01
              MO Center=  3.0D-03, -7.6D-02, -1.5D-15, r^2= 4.6D-01
   Bfn.  Coefficient  Atom+Function         Bfn.  Coefficient  Atom+Function  
  ----- ------------  ---------------      ----- ------------  ---------------
     2      0.480561  1 O  s                  3      0.450557  1 O  s          
    24      0.227233  2 H  s                  6     -0.113284  1 O  py         
     4      0.054413  1 O  s                 25     -0.046657  2 H  s          
    28      0.041816  2 H  py         

 Vector    3  Occ=1.000000D+00  E=-4.278492D-01
              MO Center= -1.8D-03,  4.6D-02, -3.0D-15, r^2= 7.5D-01
   Bfn.  Coefficient  Atom+Function         Bfn.  Coefficient  Atom+Function  
  ----- ------------  ---------------      ----- ------------  ---------------
     6      0.543410  1 O  py                24     -0.385736  2 H  s          
     3      0.302662  1 O  s                  9      0.237258  1 O  py         
     2      0.160837  1 O  s                 25     -0.120558  2 H  s          
     4      0.091754  1 O  s                 28     -0.034422  2 H  py         
    12      0.031868  1 O  py         

 Vector    4  Occ=1.000000D+00  E=-3.657173D-01
              MO Center= -3.4D-03,  8.8D-02, -2.1D-16, r^2= 5.9D-01
   Bfn.  Coefficient  Atom+Function         Bfn.  Coefficient  Atom+Function  
  ----- ------------  ---------------      ----- ------------  ---------------
     7      0.684598  1 O  pz                10      0.415968  1 O  pz         
    13      0.062365  1 O  pz         

 Vector    5  Occ=1.000000D+00  E=-2.925233D-01
              MO Center= -3.2D-03,  8.3D-02,  1.3D-15, r^2= 6.7D-01
   Bfn.  Coefficient  Atom+Function         Bfn.  Coefficient  Atom+Function  
  ----- ------------  ---------------      ----- ------------  ---------------
     5      0.658681  1 O  px                 8      0.419493  1 O  px         
    11      0.091250  1 O  px                30      0.027755  2 H  px         
    27      0.026483  2 H  px                 6      0.025529  1 O  py         

 Vector    6  Occ=0.000000D+00  E=-3.249879D-02
              MO Center=  4.4D-02, -1.1D+00,  1.5D-14, r^2= 5.9D+00
   Bfn.  Coefficient  Atom+Function         Bfn.  Coefficient  Atom+Function  
  ----- ------------  ---------------      ----- ------------  ---------------
    26      0.926106  2 H  s                 25      0.417882  2 H  s          
     4     -0.271184  1 O  s                  3     -0.246822  1 O  s          
     6      0.204119  1 O  py                 9      0.165843  1 O  py         
     2     -0.132102  1 O  s                 24      0.120976  2 H  s          
    12      0.082077  1 O  py                31     -0.079640  2 H  py         

 Vector    7  Occ=0.000000D+00  E= 8.415605D-02
              MO Center=  1.1D-02, -2.9D-01,  4.4D-12, r^2= 8.6D+00
   Bfn.  Coefficient  Atom+Function         Bfn.  Coefficient  Atom+Function  
  ----- ------------  ---------------      ----- ------------  ---------------
     4      1.745452  1 O  s                 26     -1.425931  2 H  s          
    12     -1.012001  1 O  py                25     -0.709993  2 H  s          
    31     -0.634768  2 H  py                 6      0.321375  1 O  py         
    24      0.166605  2 H  s                  3      0.152872  1 O  s          
     9      0.137240  1 O  py                 2     -0.075826  1 O  s          

 Vector    8  Occ=0.000000D+00  E= 9.793016D-02
              MO Center= -5.8D-03,  1.5D-01, -1.5D-11, r^2= 5.7D+00
   Bfn.  Coefficient  Atom+Function         Bfn.  Coefficient  Atom+Function  
  ----- ------------  ---------------      ----- ------------  ---------------
    13      1.131963  1 O  pz                10     -0.273620  1 O  pz         
     7     -0.239939  1 O  pz                32     -0.048274  2 H  pz         

 Vector    9  Occ=0.000000D+00  E= 1.087426D-01
              MO Center= -6.9D-03,  1.8D-01,  1.1D-11, r^2= 5.7D+00
   Bfn.  Coefficient  Atom+Function         Bfn.  Coefficient  Atom+Function  
  ----- ------------  ---------------      ----- ------------  ---------------
    11      1.153867  1 O  px                 8     -0.303743  1 O  px         
     5     -0.250802  1 O  px                30     -0.078996  2 H  px         
    12      0.044721  1 O  py         

 Vector   10  Occ=0.000000D+00  E= 1.194142D-01
              MO Center= -6.6D-03,  1.7D-01, -6.4D-14, r^2= 7.2D+00
   Bfn.  Coefficient  Atom+Function         Bfn.  Coefficient  Atom+Function  
  ----- ------------  ---------------      ----- ------------  ---------------
     4      0.988428  1 O  s                 12      0.962314  1 O  py         
    26     -0.856961  2 H  s                 25      0.557544  2 H  s          
     3     -0.411023  1 O  s                 31     -0.361714  2 H  py         
    24      0.183239  2 H  s                  2     -0.143492  1 O  s          
     9     -0.089357  1 O  py                11     -0.037297  1 O  px         

 Vector   11  Occ=0.000000D+00  E= 1.925283D-01
              MO Center=  1.4D-03, -3.7D-02, -3.8D-13, r^2= 6.5D+00
   Bfn.  Coefficient  Atom+Function         Bfn.  Coefficient  Atom+Function  
  ----- ------------  ---------------      ----- ------------  ---------------
     4      4.610755  1 O  s                 25     -3.613254  2 H  s          
    12     -1.867080  1 O  py                26     -1.218497  2 H  s          
     9     -0.516804  1 O  py                24     -0.269942  2 H  s          
    31     -0.228289  2 H  py                 3     -0.163588  1 O  s          
     6     -0.141412  1 O  py                 2     -0.089207  1 O  s          

 Vector   12  Occ=0.000000D+00  E= 2.614742D-01
              MO Center=  2.6D-02, -6.8D-01, -1.6D-12, r^2= 3.8D+00
   Bfn.  Coefficient  Atom+Function         Bfn.  Coefficient  Atom+Function  
  ----- ------------  ---------------      ----- ------------  ---------------
    32      1.544495  2 H  pz                13     -0.913945  1 O  pz         
    10     -0.322437  1 O  pz                 7     -0.099560  1 O  pz         
    20      0.030639  1 O  d -1              15     -0.030261  1 O  d -1       
    29      0.028502  2 H  pz         

 Vector   13  Occ=0.000000D+00  E= 2.689469D-01
              MO Center=  2.8D-02, -7.1D-01,  1.6D-12, r^2= 3.8D+00
   Bfn.  Coefficient  Atom+Function         Bfn.  Coefficient  Atom+Function  
  ----- ------------  ---------------      ----- ------------  ---------------
    30      1.555295  2 H  px                11     -0.892961  1 O  px         
     8     -0.346127  1 O  px                 5     -0.106713  1 O  px         
    31      0.060279  2 H  py                19      0.042976  1 O  d -2       
    12     -0.034609  1 O  py                14     -0.028751  1 O  d -2       
    27      0.028216  2 H  px         

 Vector   14  Occ=0.000000D+00  E= 4.515589D-01
              MO Center=  4.7D-02, -1.2D+00, -9.3D-15, r^2= 3.9D+00
   Bfn.  Coefficient  Atom+Function         Bfn.  Coefficient  Atom+Function  
  ----- ------------  ---------------      ----- ------------  ---------------
    25     -4.505516  2 H  s                  4      4.385468  1 O  s          
    31     -2.718518  2 H  py                 3      1.775429  1 O  s          
    26     -1.069519  2 H  s                 12     -0.915457  1 O  py         
     9     -0.674067  1 O  py                24     -0.399725  2 H  s          
     6     -0.327107  1 O  py                30      0.105363  2 H  px         

 Vector   15  Occ=0.000000D+00  E= 6.253197D-01
              MO Center=  7.4D-03, -1.9D-01, -1.1D-13, r^2= 3.7D+00
   Bfn.  Coefficient  Atom+Function         Bfn.  Coefficient  Atom+Function  
  ----- ------------  ---------------      ----- ------------  ---------------
    25      6.257011  2 H  s                  4     -4.822745  1 O  s          
    12      1.973573  1 O  py                31      1.218362  2 H  py         
     3     -1.182289  1 O  s                 24     -0.727761  2 H  s          
     9      0.597980  1 O  py                26      0.571695  2 H  s          
    23      0.461294  1 O  d  2              21      0.380224  1 O  d  0       

 Vector   16  Occ=0.000000D+00  E= 7.322983D-01
              MO Center= -4.6D-03,  1.2D-01, -1.8D-13, r^2= 1.5D+00
   Bfn.  Coefficient  Atom+Function         Bfn.  Coefficient  Atom+Function  
  ----- ------------  ---------------      ----- ------------  ---------------
    22      1.000405  1 O  d  1              20     -0.038773  1 O  d -1       

 Vector   17  Occ=0.000000D+00  E= 7.339766D-01
              MO Center= -4.4D-03,  1.1D-01,  2.9D-13, r^2= 1.5D+00
   Bfn.  Coefficient  Atom+Function         Bfn.  Coefficient  Atom+Function  
  ----- ------------  ---------------      ----- ------------  ---------------
    21      0.844038  1 O  d  0              25     -0.697316  2 H  s          
    23     -0.528338  1 O  d  2               4      0.496141  1 O  s          
    12     -0.193897  1 O  py                 3      0.187885  1 O  s          
    31     -0.172095  2 H  py                24      0.096969  2 H  s          
     9     -0.069227  1 O  py                26     -0.053989  2 H  s          

 Vector   18  Occ=0.000000D+00  E= 8.571924D-01
              MO Center= -1.3D-02,  3.3D-01, -8.8D-13, r^2= 2.1D+00
   Bfn.  Coefficient  Atom+Function         Bfn.  Coefficient  Atom+Function  
  ----- ------------  ---------------      ----- ------------  ---------------
    20      1.085213  1 O  d -1              32      0.907526  2 H  pz         
    13     -0.676039  1 O  pz                 7     -0.269269  1 O  pz         
    10      0.204784  1 O  pz                29     -0.060506  2 H  pz         
    22      0.042060  1 O  d  1       

 Vector   19  Occ=0.000000D+00  E= 8.827127D-01
              MO Center= -1.2D-02,  3.0D-01,  9.0D-13, r^2= 2.1D+00
   Bfn.  Coefficient  Atom+Function         Bfn.  Coefficient  Atom+Function  
  ----- ------------  ---------------      ----- ------------  ---------------
    19      1.101405  1 O  d -2              30      0.922817  2 H  px         
    11     -0.657591  1 O  px                 5     -0.239738  1 O  px         
     8      0.148960  1 O  px                23     -0.085504  1 O  d  2       
    27     -0.065658  2 H  px                31      0.035766  2 H  py         
    12     -0.025487  1 O  py         

 Vector   20  Occ=0.000000D+00  E= 1.006257D+00
              MO Center=  1.1D-02, -2.9D-01, -1.9D-14, r^2= 1.7D+00
   Bfn.  Coefficient  Atom+Function         Bfn.  Coefficient  Atom+Function  
  ----- ------------  ---------------      ----- ------------  ---------------
    10      1.450925  1 O  pz                 7     -0.901741  1 O  pz         
    32     -0.714730  2 H  pz                20     -0.440796  1 O  d -1       
    13     -0.152006  1 O  pz                29      0.036344  2 H  pz         

 Vector   21  Occ=0.000000D+00  E= 1.023390D+00
              MO Center= -1.9D-02,  5.0D-01,  1.3D-13, r^2= 2.0D+00
   Bfn.  Coefficient  Atom+Function         Bfn.  Coefficient  Atom+Function  
  ----- ------------  ---------------      ----- ------------  ---------------
    25      4.201001  2 H  s                  4     -3.278013  1 O  s          
     9      1.631471  1 O  py                31      1.484999  2 H  py         
     3     -1.173803  1 O  s                  6     -0.670722  1 O  py         
    12      0.522103  1 O  py                23     -0.479521  1 O  d  2       
    26      0.443860  2 H  s                 28      0.374741  2 H  py         

 Vector   22  Occ=0.000000D+00  E= 1.050970D+00
              MO Center=  9.7D-03, -2.5D-01, -1.8D-13, r^2= 1.6D+00
[...]


   alpha    121    122    123    124    125    126    127    128    129    130
    beta    122    121    124    123    128    127    126    125    129    130
 overlap   0.967  0.994  0.977  0.768  0.975  0.764  0.935  0.936  0.783  0.996


   alpha    131    132    133    134    135    136    137    138    139    140
    beta    131    133    132    134    135    136    137    138    139    140
 overlap   0.781  0.996  0.998  0.997  0.997  0.998  0.997  0.990  0.999  0.999


   alpha    141    142    143    144    145    146    147    148    149    150
    beta    141    144    145    142    143    147    146    148    149    151
 overlap   0.718  0.990  0.668  0.990  0.818  0.999  1.000  0.998  0.999  0.999


   alpha    151    152    153    154    155    156    157    158    159    160
    beta    150    153    152    154    155    156    158    157    160    159
 overlap   1.000  0.992  0.998  0.979  0.979  0.994  0.999  1.000  0.999  1.000


   alpha    161    162    163    164    165    166    167    168    169    170
    beta    161    162    163    164    165    166    167    168    170    169
 overlap   0.999  1.000  0.999  1.000  0.999  1.000  0.874  0.874  0.999  1.000


   alpha    171    172    173    174    175    176    177    178    179    180
    beta    171    172    174    173    175    176    177    178    179    180
 overlap   0.998  0.998  0.999  0.999  1.000  1.000  1.000  0.999  0.999  0.999


   alpha    181    182    183    184    185    186    187    188    189    190
    beta    182    181    184    183    185    186    188    189    187    191
 overlap   0.997  0.999  0.997  0.999  0.999  0.998  0.996  0.999  0.998  0.985


   alpha    191    192    193    194    195    196    197    198    199    200
    beta    190    192    193    195    194    197    196    198    199    200
 overlap   0.985  0.993  0.993  0.980  0.998  0.998  0.999  0.982  0.999  0.999


   alpha    201    202    203    204    205    206    207    208    209    210
    beta    201    202    204    203    206    205    207    208    210    209
 overlap   1.000  0.999  0.996  0.998  0.997  0.999  0.997  0.997  0.998  0.999


   alpha    211    212    213    214    215    216    217    218    219    220
    beta    211    212    213    214    216    215    217    219    218    220
 overlap   0.994  0.925  0.999  0.919  0.997  0.999  0.996  0.999  1.000  0.999


   alpha    221    222    223    224    225    226    227    228    229    230
    beta    221    222    223    225    224    226    230    228    227    229
 overlap   0.998  1.000  0.999  1.000  1.000  0.999  1.000  0.810  0.810  1.000


   alpha    231    232    233    234    235    236    237    238    239    240
    beta    231    232    233    234    235    236    238    237    239    240
 overlap   0.864  0.864  1.000  1.000  1.000  1.000  0.857  0.858  0.997  0.997


   alpha    241    242    243    244    245    246    247    248    249    250
    beta    242    241    244    243    246    245    247    248    249    250
 overlap   0.998  0.999  0.999  0.999  0.999  1.000  1.000  1.000  1.000  1.000


   alpha    251    252    253    254    255    256    257    258    259    260
    beta    252    251    253    254    256    255    258    257    260    259
 overlap   0.755  0.755  0.984  0.984  1.000  1.000  0.991  0.992  0.969  0.969


   alpha    261    262    263    264    265    266    267    268    269    270
    beta    262    261    263    265    264    267    266    268    269    270
 overlap   0.996  0.998  0.999  0.996  0.998  0.997  0.998  0.999  1.000  0.999


   alpha    271    272    273    274    275    276    277    278    279    280
    beta    272    271    274    273    275    276    277    278    279    280
 overlap   1.000  1.000  0.999  1.000  0.998  0.978  0.978  0.999  0.998  0.998


   alpha    281    282    283    284    285    286    287    288    289    290
    beta    282    281    284    283    286    285    287    289    288    292
 overlap   0.991  0.976  0.989  0.974  0.931  1.000  0.933  0.997  0.998  0.997


   alpha    291    292    293    294    295    296    297    298    299    300
    beta    291    290    293    294    296    295    298    297    301    303
 overlap   0.998  0.999  1.000  1.000  0.999  1.000  0.999  1.000  1.000  0.798


   alpha    301    302    303    304    305    306    307    308    309    310
    beta    299    302    300    305    304    306    307    308    310    309
 overlap   1.000  1.000  0.799  1.000  1.000  0.999  1.000  0.999  1.000  1.000


   alpha    311    312    313    314    315
    beta    311    313    312    314    315
 overlap   1.000  1.000  1.000  1.000  1.000

     --------------------------
     Expectation value of S2:  
     --------------------------
      <S2> =      0.7524 (Exact =     0.7500)


 center of mass
 --------------
 x =  -0.00405861 y =   0.10471821 z =   0.00000000

 moments of inertia (a.u.)
 ------------------
           3.266135727466           0.126587215759           0.000000000000
           0.126587215759           0.004906202476           0.000000000000
           0.000000000000           0.000000000000           3.271041929942

     Multipole analysis of the density
     ---------------------------------

     L   x y z        total         alpha         beta         nuclear
     -   - - -        -----         -----         ----         -------
     0   0 0 0     -0.000000     -5.000000     -4.000000      9.000000

     1   1 0 0      0.024376      0.017188      0.010155     -0.002967
     1   0 1 0     -0.628944     -0.443478     -0.262018      0.076552
     1   0 0 1      0.000000     -0.000000      0.000000      0.000000

     2   2 0 0     -5.041274     -2.743292     -2.302583      0.004601
     2   1 1 0     -0.056917      0.028166      0.033625     -0.118708
     2   1 0 1      0.372919      0.004213      0.368707      0.000000
     2   0 2 0     -3.574935     -3.468934     -3.168852      3.062851
     2   0 1 1      0.014453      0.000163      0.014290      0.000000
     2   0 0 2     -4.368885     -2.734578     -1.634307      0.000000

 Line search: 
     step= 1.00 grad=-1.0D-08 hess= 1.0D-08 energy=    -75.690244 mode=accept  
 new step= 1.00                   predicted energy=    -75.690244
  no constraints, skipping    0.0000000000000000     
  no constraints, skipping    0.0000000000000000     
  no constraints, skipping    0.0000000000000000     

          --------
          Step   1
          --------


                         Geometry "geometry" -> "geometry"
                         ---------------------------------

 Output coordinates in angstroms (scale by  1.889725989 to convert to a.u.)

  No.       Tag          Charge          X              Y              Z
 ---- ---------------- ---------- -------------- -------------- --------------
    1 O                    8.0000    -0.00440413     0.11363293     0.00000000
    2 H                    1.0000     0.03366298    -0.86855412     0.00000000

      Atomic Mass 
      ----------- 

      O                 15.994910
      H                  1.007825


 Effective nuclear repulsion energy (a.u.)       4.3069616263

            Nuclear Dipole moment (a.u.) 
            ----------------------------
        X                 Y               Z
 ---------------- ---------------- ----------------
    -0.0029669462     0.0765515609     0.0000000000


                                 NWChem DFT Module
                                 -----------------




 Summary of "ao basis" -> "cc-pv6z" (spherical)
 ------------------------------------------------------------------------------
       Tag                 Description            Shells   Functions and Types
 ---------------- ------------------------------  ------  ---------------------
 O                        aug-cc-pv6z               35      189   8s7p6d5f4g3h2i
 H                        aug-cc-pv6z               27      127   7s6p5d4f3g2h



  The DFT is already converged 

         Total DFT energy =    -75.690243829168


            General Information
            -------------------
          SCF calculation type: DFT
          Wavefunction type:  spin polarized.
          No. of atoms     :     2
          No. of electrons :     9
           Alpha electrons :     5
            Beta electrons :     4
          Charge           :     0
          Spin multiplicity:     2
          Use of symmetry is: off; symmetry adaption is: off
          Maximum number of iterations: 500
          This is a Direct SCF calculation.
          AO basis - number of functions:   316
                     number of shells:    62
          Convergence on energy requested:  1.00D-06
          Convergence on density requested:  1.00D-05
          Convergence on gradient requested:  5.00D-04

              XC Information
              --------------
          PerdewBurkeErnzerhof Exchange Functional  1.000          
            Perdew 1991 LDA Correlation Functional  1.000 local    
           PerdewBurkeErnz. Correlation Functional  1.000 non-local

             Grid Information
             ----------------
          Grid used for XC integration:  medium    
          Radial quadrature: Mura-Knowles        
          Angular quadrature: Lebedev. 
          Tag              B.-S. Rad. Rad. Pts. Rad. Cut. Ang. Pts.
          ---              ---------- --------- --------- ---------
          O                   0.60       49          12.0       434
          H                   0.35       45          12.0       434
          Grid pruning is: on 
          Number of quadrature shells:    94
          Spatial weights used:  Erf1

          Convergence Information
          -----------------------
          Convergence aids based upon iterative change in 
          total energy or number of iterations. 
          Levelshifting, if invoked, occurs when the 
          HOMO/LUMO gap drops below (HL_TOL):  1.00D-02
          DIIS, if invoked, will attempt to extrapolate 
          using up to (NFOCK): 10 stored Fock matrices.

                    Damping( 0%)  Levelshifting(0.5)       DIIS
                  --------------- ------------------- ---------------
          dE  on:    start            ASAP                start   
          dE off:    2 iters        500 iters           500 iters 


      Screening Tolerance Information
      -------------------------------
          Density screening/tol_rho:  1.00D-10
          AO Gaussian exp screening on grid/accAOfunc:  14
          CD Gaussian exp screening on grid/accCDfunc:  20
          XC Gaussian exp screening on grid/accXCfunc:  20
          Schwarz screening/accCoul:  1.00D-08

  texas integral default override: limxmem =             50000000
  texas integral default override: limxmem =             50000000


                            NWChem DFT Gradient Module
                            --------------------------



  charge          =   0.00
  wavefunction    = open shell

  texas integral default override: limxmem =             50000000
  texas integral default override: limxmem =             50000000


                         DFT ENERGY GRADIENTS

    atom               coordinates                        gradient
                 x          y          z           x          y          z
   1 O      -0.008323   0.214735   0.000000   -0.000000   0.000011  -0.000000
   2 H       0.063614  -1.641329   0.000000    0.000000  -0.000011   0.000000

                 ----------------------------------------
                 |  Time  |  1-e(secs)   |  2-e(secs)   |
                 ----------------------------------------
                 |  CPU   |       0.14   |      24.39   |
                 ----------------------------------------
                 |  WALL  |       0.14   |      27.32   |
                 ----------------------------------------
  no constraints, skipping    0.0000000000000000     

  Step       Energy      Delta E   Gmax     Grms     Xrms     Xmax   Walltime
  ---- ---------------- -------- -------- -------- -------- -------- --------
@    1     -75.69024383  3.1D-11  0.00001  0.00001  0.00004  0.00007   1752.9
                                     ok       ok       ok       ok  



                                Z-matrix (autoz)
                                -------- 

 Units are Angstrom for bonds and degrees for angles

      Type          Name      I     J     K     L     M      Value     Gradient
      ----------- --------  ----- ----- ----- ----- ----- ---------- ----------
    1 Stretch                  1     2                       0.98292    0.00001


      ----------------------
      Optimization converged
      ----------------------


  Step       Energy      Delta E   Gmax     Grms     Xrms     Xmax   Walltime
  ---- ---------------- -------- -------- -------- -------- -------- --------
@    1     -75.69024383  3.1D-11  0.00001  0.00001  0.00004  0.00007   1752.9
                                     ok       ok       ok       ok  



                                Z-matrix (autoz)
                                -------- 

 Units are Angstrom for bonds and degrees for angles

      Type          Name      I     J     K     L     M      Value     Gradient
      ----------- --------  ----- ----- ----- ----- ----- ---------- ----------
    1 Stretch                  1     2                       0.98292    0.00001



                         Geometry "geometry" -> "geometry"
                         ---------------------------------

 Output coordinates in angstroms (scale by  1.889725989 to convert to a.u.)

  No.       Tag          Charge          X              Y              Z
 ---- ---------------- ---------- -------------- -------------- --------------
    1 O                    8.0000    -0.00440413     0.11363293     0.00000000
    2 H                    1.0000     0.03366298    -0.86855412     0.00000000

      Atomic Mass 
      ----------- 

      O                 15.994910
      H                  1.007825


 Effective nuclear repulsion energy (a.u.)       4.3069616263

            Nuclear Dipole moment (a.u.) 
            ----------------------------
        X                 Y               Z
 ---------------- ---------------- ----------------
    -0.0029669462     0.0765515609     0.0000000000


                Final and change from initial internal coordinates
                --------------------------------------------------



                                Z-matrix (autoz)
                                -------- 

 Units are Angstrom for bonds and degrees for angles

      Type          Name      I     J     K     L     M      Value       Change
      ----------- --------  ----- ----- ----- ----- ----- ---------- ----------
    1 Stretch                  1     2                       0.98292   -0.00008

 ==============================================================================
                                internuclear distances
 ------------------------------------------------------------------------------
       center one      |      center two      | atomic units |  angstroms
 ------------------------------------------------------------------------------
    2 H                |   1 O                |     1.85746  |     0.98292
 ------------------------------------------------------------------------------
                         number of included internuclear distances:          1
 ==============================================================================




 Task  times  cpu:     1607.5s     wall:     1625.1s


                                NWChem Input Module
                                -------------------


 Summary of allocated global arrays
-----------------------------------
  No active global arrays


MA_summarize_allocated_blocks: starting scan ...
MA_summarize_allocated_blocks: scan completed: 0 heap blocks, 0 stack blocks
MA usage statistics:

	allocation statistics:
					      heap	     stack
					      ----	     -----
	current number of blocks	         0	         0
	maximum number of blocks	        24	        54
	current total bytes		         0	         0
	maximum total bytes		    282136	 572502568
	maximum total K-bytes		       283	    572503
	maximum total M-bytes		         1	       573


                                     CITATION
                                     --------
                Please cite the following reference when publishing
                           results obtained with NWChem:

          E. Apra, E. J. Bylaska, W. A. de Jong, N. Govind, K. Kowalski,
       T. P. Straatsma, M. Valiev, H. J. J. van Dam, Y. Alexeev, J. Anchell,
       V. Anisimov, F. W. Aquino, R. Atta-Fynn, J. Autschbach, N. P. Bauman,
     J. C. Becca, D. E. Bernholdt, K. Bhaskaran-Nair, S. Bogatko, P. Borowski,
         J. Boschen, J. Brabec, A. Bruner, E. Cauet, Y. Chen, G. N. Chuev,
      C. J. Cramer, J. Daily, M. J. O. Deegan, T. H. Dunning Jr., M. Dupuis,
   K. G. Dyall, G. I. Fann, S. A. Fischer, A. Fonari, H. Fruchtl, L. Gagliardi,
      J. Garza, N. Gawande, S. Ghosh, K. Glaesemann, A. W. Gotz, J. Hammond,
       V. Helms, E. D. Hermes, K. Hirao, S. Hirata, M. Jacquelin, L. Jensen,
   B. G. Johnson, H. Jonsson, R. A. Kendall, M. Klemm, R. Kobayashi, V. Konkov,
      S. Krishnamoorthy, M. Krishnan, Z. Lin, R. D. Lins, R. J. Littlefield,
      A. J. Logsdail, K. Lopata, W. Ma, A. V. Marenich, J. Martin del Campo,
   D. Mejia-Rodriguez, J. E. Moore, J. M. Mullin, T. Nakajima, D. R. Nascimento,
    J. A. Nichols, P. J. Nichols, J. Nieplocha, A. Otero-de-la-Roza, B. Palmer,
    A. Panyala, T. Pirojsirikul, B. Peng, R. Peverati, J. Pittner, L. Pollack,
   R. M. Richard, P. Sadayappan, G. C. Schatz, W. A. Shelton, D. W. Silverstein,
   D. M. A. Smith, T. A. Soares, D. Song, M. Swart, H. L. Taylor, G. S. Thomas,
            V. Tipparaju, D. G. Truhlar, K. Tsemekhman, T. Van Voorhis,
      A. Vazquez-Mayagoitia, P. Verma, O. Villa, A. Vishnu, K. D. Vogiatzis,
        D. Wang, J. H. Weare, M. J. Williamson, T. L. Windus, K. Wolinski,
        A. T. Wong, Q. Wu, C. Yang, Q. Yu, M. Zacharias, Z. Zhang, Y. Zhao,
                                and R. J. Harrison
                        "NWChem: Past, present, and future
                         J. Chem. Phys. 152, 184102 (2020)
                               doi:10.1063/5.0004997

                                      AUTHORS
                                      -------
  E. Apra, E. J. Bylaska, N. Govind, K. Kowalski, M. Valiev, D. Mejia-Rodriguez,
       A. Kunitsa, N. P. Bauman, A. Panyala, W. A. de Jong, T. P. Straatsma,
        H. J. J. van Dam, D. Wang, T. L. Windus, J. Hammond, J. Autschbach,
    K. Bhaskaran-Nair, J. Brabec, K. Lopata, S. A. Fischer, S. Krishnamoorthy,
     M. Jacquelin, W. Ma, M. Klemm, O. Villa, Y. Chen, V. Anisimov, F. Aquino,
    S. Hirata, M. T. Hackler, Eric Hermes, L. Jensen, J. E. Moore, J. C. Becca,
      V. Konjkov, T. Risthaus, M. Malagoli, A. Marenich, A. Otero-de-la-Roza,
        J. Mullin, P. Nichols, R. Peverati, J. Pittner, Y. Zhao, P.-D. Fan,
        A. Fonari, M. J. Williamson, R. J. Harrison, J. R. Rehr, M. Dupuis,
     D. Silverstein, D. M. A. Smith, J. Nieplocha, V. Tipparaju, M. Krishnan,
     B. E. Van Kuiken, A. Vazquez-Mayagoitia, M. Swart, Q. Wu, T. Van Voorhis,
     A. A. Auer, M. Nooijen, L. D. Crosby, E. Brown, G. Cisneros, G. I. Fann,
   H. Fruchtl, J. Garza, K. Hirao, R. A. Kendall, J. A. Nichols, K. Tsemekhman,
    K. Wolinski, J. Anchell, D. E. Bernholdt, P. Borowski, T. Clark, D. Clerc,
   H. Dachsel, M. J. O. Deegan, K. Dyall, D. Elwood, E. Glendening, M. Gutowski,
   A. C. Hess, J. Jaffe, B. G. Johnson, J. Ju, R. Kobayashi, R. Kutteh, Z. Lin,
   R. Littlefield, X. Long, B. Meng, T. Nakajima, S. Niu, L. Pollack, M. Rosing,
   K. Glaesemann, G. Sandrone, M. Stave, H. Taylor, G. Thomas, J. H. van Lenthe,
                               A. T. Wong, Z. Zhang.

 Total times  cpu:     1728.2s     wall:     1753.2s
