 argument  1 = /home/hvandam/nwchem-1-srp-hpc/QA/tests/ZSM-5/nwc/propene-dft-pbe-thermo.nw



============================== echo of input deck ==============================
echo
start propene-dat

memory heap 100 mb stack 500 mb global 1024 mb

geometry
  #load ../xyz/propene.xyz
  load propene.xyz
end

basis "cc-pvdz" spherical
  * library cc-pvdz
end
basis "cc-pvtz" spherical
  * library cc-pvtz
end
basis "cc-pvqz" spherical
  * library cc-pvqz
end
basis "cc-pv5z" spherical
  * library cc-pv5z
end
basis "cc-pv6z" spherical
  * library cc-pv6z
end

dft
  direct
  # select PBE functional following https://doi.org/10.1002/aic.15517
  xc xpbe96 cpbe96
  convergence energy 1e-8 density 1e-7 gradient 1e-6
end

set int:txs:limxmem              50000000

set "ao basis" "cc-pvdz"
task dft optimize
task dft frequencies
vib
  reuse
  temp 9 198.15 298.15 398.15 498.15 598.15 698.15 798.15 898.15 998.15
end
task dft frequencies

set "ao basis" "cc-pvtz"
task dft optimize
task dft frequencies
vib
  reuse
  temp 9 198.15 298.15 398.15 498.15 598.15 698.15 798.15 898.15 998.15
end
task dft frequencies

set "ao basis" "cc-pvqz"
task dft optimize
task dft frequencies
vib
  reuse
  temp 9 198.15 298.15 398.15 498.15 598.15 698.15 798.15 898.15 998.15
end
task dft frequencies

#set "ao basis" "cc-pv5z"
#task dft optimize

#set "ao basis" "cc-pv6z"
#task dft optimize
================================================================================


                                         
                                         


             Northwest Computational Chemistry Package (NWChem) 7.0.1
             --------------------------------------------------------


                    Environmental Molecular Sciences Laboratory
                       Pacific Northwest National Laboratory
                                Richland, WA 99352

                              Copyright (c) 1994-2020
                       Pacific Northwest National Laboratory
                            Battelle Memorial Institute

             NWChem is an open-source computational chemistry package
                        distributed under the terms of the
                      Educational Community License (ECL) 2.0
             A copy of the license is included with this distribution
                              in the LICENSE.TXT file

                                  ACKNOWLEDGMENT
                                  --------------

            This software and its documentation were developed at the
            EMSL at Pacific Northwest National Laboratory, a multiprogram
            national laboratory, operated for the U.S. Department of Energy
            by Battelle under Contract Number DE-AC05-76RL01830. Support
            for this work was provided by the Department of Energy Office
            of Biological and Environmental Research, Office of Basic
            Energy Sciences, and the Office of Advanced Scientific Computing.


           Job information
           ---------------

    hostname        = node002
    program         = /home/hvandam/nwchem-1-srp-hpc/bin/LINUX64/nwchem
    date            = Mon Oct 31 12:46:40 2022

    compiled        = Fri_Jul_08_12:50:28_2022
    source          = /home/hvandam/nwchem-1-srp-hpc
    nwchem branch   = 7.0.0
    nwchem revision = nwchem_on_git-4025-gba861c8c44
    ga revision     = 5.8.1
    use scalapack   = F
    input           = /home/hvandam/nwchem-1-srp-hpc/QA/tests/ZSM-5/nwc/propene-dft-pbe-thermo.nw
    prefix          = propene-dat.
    data base       = ./propene-dat.db
    status          = startup
    nproc           =       16
    time left       =     -1s



           Memory information
           ------------------

    heap     =   13107198 doubles =    100.0 Mbytes
    stack    =   65535995 doubles =    500.0 Mbytes
    global   =  134217728 doubles =   1024.0 Mbytes (distinct from heap & stack)
    total    =  212860921 doubles =   1624.0 Mbytes
    verify   = yes
    hardfail = no 


           Directory information
           ---------------------

  0 permanent = .
  0 scratch   = .




                                NWChem Input Module
                                -------------------



 Scaling coordinates for geometry "geometry" by  1.889725989
 (inverse scale =  0.529177249)

 CS  symmetry detected

          ------
          auto-z
          ------
  no constraints, skipping    0.0000000000000000     
  no constraints, skipping    0.0000000000000000     


                             Geometry "geometry" -> ""
                             -------------------------

 Output coordinates in angstroms (scale by  1.889725989 to convert to a.u.)

  No.       Tag          Charge          X              Y              Z
 ---- ---------------- ---------- -------------- -------------- --------------
    1 C                    6.0000     0.25270021    -1.23651959     0.00000000
    2 C                    6.0000    -0.40623009     0.12248768     0.00000000
    3 C                    6.0000     0.24637741     1.29769175     0.00000000
    4 H                    1.0000     0.91686791    -2.01983544     0.00000000
    5 H                    1.0000    -0.50745670    -1.41212071     0.89144187
    6 H                    1.0000    -0.50745670    -1.41212071    -0.89144187
    7 H                    1.0000    -1.51062611     0.13914476     0.00000000
    8 H                    1.0000     1.34816049     1.34845274     0.00000000
    9 H                    1.0000    -0.29657404     2.25452032     0.00000000

      Atomic Mass 
      ----------- 

      C                 12.000000
      H                  1.007825


 Effective nuclear repulsion energy (a.u.)      70.3452605234

            Nuclear Dipole moment (a.u.) 
            ----------------------------
        X                 Y               Z
 ---------------- ---------------- ----------------
    -0.0000000000     0.0000000000     0.0000000000

      Symmetry information
      --------------------

 Group name             Cs        
 Group number              2
 Group order               2
 No. of unique centers     8

      Symmetry unique atoms

     1    2    3    4    5    7    8    9



                                Z-matrix (autoz)
                                -------- 

 Units are Angstrom for bonds and degrees for angles

      Type          Name      I     J     K     L     M      Value
      ----------- --------  ----- ----- ----- ----- ----- ----------
    1 Stretch                  1     2                       1.51033
    2 Stretch                  1     4                       1.02699
    3 Stretch                  1     5                       1.18463
    4 Stretch                  1     6                       1.18463
    5 Stretch                  2     3                       1.34425
    6 Stretch                  2     7                       1.10452
    7 Stretch                  3     8                       1.10295
    8 Stretch                  3     9                       1.10014
    9 Bend                     1     2     3               125.08900
   10 Bend                     1     2     7               116.73106
   11 Bend                     2     1     4               165.57260
   12 Bend                     2     1     5                81.57155
   13 Bend                     2     1     6                81.57155
   14 Bend                     2     3     8               121.68188
   15 Bend                     2     3     9               121.38326
   16 Bend                     3     2     7               118.17994
   17 Bend                     4     1     5               107.57323
   18 Bend                     4     1     6               107.57323
   19 Bend                     5     1     6                97.61620
   20 Bend                     8     3     9               116.93485
   21 Torsion                  1     2     3     8           0.00000
   22 Torsion                  1     2     3     9         180.00000
   23 Torsion                  3     2     1     4           0.00000
   24 Torsion                  3     2     1     5         130.47193
   25 Torsion                  3     2     1     6        -130.47193
   26 Torsion                  4     1     2     7         180.00000
   27 Torsion                  5     1     2     7         -49.52807
   28 Torsion                  6     1     2     7          49.52807
   29 Torsion                  7     2     3     8         180.00000
   30 Torsion                  7     2     3     9           0.00000


            XYZ format geometry
            -------------------
     9
 geometry
 C                     0.25270021    -1.23651959     0.00000000
 C                    -0.40623009     0.12248768     0.00000000
 C                     0.24637741     1.29769175     0.00000000
 H                     0.91686791    -2.01983544     0.00000000
 H                    -0.50745670    -1.41212071     0.89144187
 H                    -0.50745670    -1.41212071    -0.89144187
 H                    -1.51062611     0.13914476     0.00000000
 H                     1.34816049     1.34845274     0.00000000
 H                    -0.29657404     2.25452032     0.00000000

 ==============================================================================
                                internuclear distances
 ------------------------------------------------------------------------------
       center one      |      center two      | atomic units |  angstroms
 ------------------------------------------------------------------------------
    2 C                |   1 C                |     2.85411  |     1.51033
    3 C                |   2 C                |     2.54026  |     1.34425
    4 H                |   1 C                |     1.94072  |     1.02699
    7 H                |   2 C                |     2.08724  |     1.10452
    8 H                |   3 C                |     2.08428  |     1.10295
    9 H                |   3 C                |     2.07897  |     1.10014
 ------------------------------------------------------------------------------
                         number of included internuclear distances:          6
 ==============================================================================



 ==============================================================================
                                 internuclear angles
 ------------------------------------------------------------------------------
        center 1       |       center 2       |       center 3       |  degrees
 ------------------------------------------------------------------------------
    2 C                |   1 C                |   4 H                |   165.57
    1 C                |   2 C                |   3 C                |   125.09
    1 C                |   2 C                |   7 H                |   116.73
    3 C                |   2 C                |   7 H                |   118.18
    2 C                |   3 C                |   8 H                |   121.68
    2 C                |   3 C                |   9 H                |   121.38
    8 H                |   3 C                |   9 H                |   116.93
 ------------------------------------------------------------------------------
                            number of included internuclear angles:          7
 ==============================================================================





 Summary of "cc-pvdz" -> "" (spherical)
 ------------------------------------------------------------------------------
       Tag                 Description            Shells   Functions and Types
 ---------------- ------------------------------  ------  ---------------------
 *                          cc-pvdz                   on all atoms 




 Summary of "cc-pvtz" -> "" (spherical)
 ------------------------------------------------------------------------------
       Tag                 Description            Shells   Functions and Types
 ---------------- ------------------------------  ------  ---------------------
 *                          cc-pvtz                   on all atoms 




 Summary of "cc-pvqz" -> "" (spherical)
 ------------------------------------------------------------------------------
       Tag                 Description            Shells   Functions and Types
 ---------------- ------------------------------  ------  ---------------------
 *                          cc-pvqz                   on all atoms 




 Summary of "cc-pv5z" -> "" (spherical)
 ------------------------------------------------------------------------------
       Tag                 Description            Shells   Functions and Types
 ---------------- ------------------------------  ------  ---------------------
 *                          cc-pv5z                   on all atoms 




 Summary of "cc-pv6z" -> "" (spherical)
 ------------------------------------------------------------------------------
       Tag                 Description            Shells   Functions and Types
 ---------------- ------------------------------  ------  ---------------------
 *                          cc-pv6z                   on all atoms 


  pbe96 is a nonlocal functional; adding pw91lda local functional. 


                           NWChem Geometry Optimization
                           ----------------------------


  no constraints, skipping    0.0000000000000000     
 maximum gradient threshold         (gmax) =   0.000450
 rms gradient threshold             (grms) =   0.000300
 maximum cartesian step threshold   (xmax) =   0.001800
 rms cartesian step threshold       (xrms) =   0.001200
 fixed trust radius                (trust) =   0.300000
 maximum step size to saddle      (sadstp) =   0.100000
 energy precision                  (eprec) =   5.0D-06
 maximum number of steps          (nptopt) =   40
 initial hessian option           (inhess) =    0
 line search option               (linopt) =    1
 hessian update option            (modupd) =    1
 saddle point option              (modsad) =    0
 initial eigen-mode to follow     (moddir) =    0
 initial variable to follow       (vardir) =    0
 follow first negative mode     (firstneg) =    T
 apply conjugacy                    (opcg) =    F
 source of zmatrix                         =   autoz   


          -------------------
          Energy Minimization
          -------------------


 Names of Z-matrix variables 
    1              2              3              4              5         
    6              7              8              9             10         
   11             12             13             14             15         
   16             17             18             19             20         
   21             22             23             24             25         
   26             27             28             29             30         

 Variables with the same non-blank name are constrained to be equal


 Using old Hessian from previous optimization

          --------
          Step   0
          --------


                         Geometry "geometry" -> "geometry"
                         ---------------------------------

 Output coordinates in angstroms (scale by  1.889725989 to convert to a.u.)

  No.       Tag          Charge          X              Y              Z
 ---- ---------------- ---------- -------------- -------------- --------------
    1 C                    6.0000     0.25270021    -1.23651959     0.00000000
    2 C                    6.0000    -0.40623009     0.12248768     0.00000000
    3 C                    6.0000     0.24637741     1.29769175     0.00000000
    4 H                    1.0000     0.91686791    -2.01983544     0.00000000
    5 H                    1.0000    -0.50745670    -1.41212071     0.89144187
    6 H                    1.0000    -0.50745670    -1.41212071    -0.89144187
    7 H                    1.0000    -1.51062611     0.13914476     0.00000000
    8 H                    1.0000     1.34816049     1.34845274     0.00000000
    9 H                    1.0000    -0.29657404     2.25452032     0.00000000

      Atomic Mass 
      ----------- 

      C                 12.000000
      H                  1.007825


 Effective nuclear repulsion energy (a.u.)      70.3452605234

            Nuclear Dipole moment (a.u.) 
            ----------------------------
        X                 Y               Z
 ---------------- ---------------- ----------------
    -0.0000000000     0.0000000000     0.0000000000

      Symmetry information
      --------------------

 Group name             Cs        
 Group number              2
 Group order               2
 No. of unique centers     8

      Symmetry unique atoms

     1    2    3    4    5    7    8    9


                                 NWChem DFT Module
                                 -----------------


                      Basis "ao basis" -> "cc-pvdz" (spherical)
                      -----
  C (Carbon)
  ----------
            Exponent  Coefficients 
       -------------- ---------------------------------------------------------
  1 S  6.66500000E+03  0.000692
  1 S  1.00000000E+03  0.005329
  1 S  2.28000000E+02  0.027077
  1 S  6.47100000E+01  0.101718
  1 S  2.10600000E+01  0.274740
  1 S  7.49500000E+00  0.448564
  1 S  2.79700000E+00  0.285074
  1 S  5.21500000E-01  0.015204

  2 S  6.66500000E+03 -0.000146
  2 S  1.00000000E+03 -0.001154
  2 S  2.28000000E+02 -0.005725
  2 S  6.47100000E+01 -0.023312
  2 S  2.10600000E+01 -0.063955
  2 S  7.49500000E+00 -0.149981
  2 S  2.79700000E+00 -0.127262
  2 S  5.21500000E-01  0.544529

  3 S  1.59600000E-01  1.000000

  4 P  9.43900000E+00  0.038109
  4 P  2.00200000E+00  0.209480
  4 P  5.45600000E-01  0.508557

  5 P  1.51700000E-01  1.000000

  6 D  5.50000000E-01  1.000000

  H (Hydrogen)
  ------------
            Exponent  Coefficients 
       -------------- ---------------------------------------------------------
  1 S  1.30100000E+01  0.019685
  1 S  1.96200000E+00  0.137977
  1 S  4.44600000E-01  0.478148

  2 S  1.22000000E-01  1.000000

  3 P  7.27000000E-01  1.000000



 Summary of "ao basis" -> "cc-pvdz" (spherical)
 ------------------------------------------------------------------------------
       Tag                 Description            Shells   Functions and Types
 ---------------- ------------------------------  ------  ---------------------
 C                          cc-pvdz                  6       14   3s2p1d
 H                          cc-pvdz                  3        5   2s1p




 Summary of "ao basis" -> "cc-pvdz" (spherical)
 ------------------------------------------------------------------------------
       Tag                 Description            Shells   Functions and Types
 ---------------- ------------------------------  ------  ---------------------
 C                          cc-pvdz                  6       14   3s2p1d
 H                          cc-pvdz                  3        5   2s1p


      Symmetry analysis of basis
      --------------------------

        a'         51
        a"         21

  texas integral default override: limxmem =             50000000
  Caching 1-el integrals 
  itol2e modified to match energy
  convergence criterion.
  tol_rho modified to match energy
  convergence criterion.

            General Information
            -------------------
          SCF calculation type: DFT
          Wavefunction type:  closed shell.
          No. of atoms     :     9
          No. of electrons :    24
           Alpha electrons :    12
            Beta electrons :    12
          Charge           :     0
          Spin multiplicity:     1
          Use of symmetry is: on ; symmetry adaption is: on 
          Maximum number of iterations:  50
          This is a Direct SCF calculation.
          AO basis - number of functions:    72
                     number of shells:    36
          Convergence on energy requested:  1.00D-08
          Convergence on density requested:  1.00D-07
          Convergence on gradient requested:  1.00D-06

              XC Information
              --------------
          PerdewBurkeErnzerhof Exchange Functional  1.000          
            Perdew 1991 LDA Correlation Functional  1.000 local    
           PerdewBurkeErnz. Correlation Functional  1.000 non-local

             Grid Information
             ----------------
          Grid used for XC integration:  medium    
          Radial quadrature: Mura-Knowles        
          Angular quadrature: Lebedev. 
          Tag              B.-S. Rad. Rad. Pts. Rad. Cut. Ang. Pts.
          ---              ---------- --------- --------- ---------
          C                   0.70       49          10.0       434
          H                   0.35       45          11.0       434
          Grid pruning is: on 
          Number of quadrature shells:   372
          Spatial weights used:  Erf1

          Convergence Information
          -----------------------
          Convergence aids based upon iterative change in 
          total energy or number of iterations. 
          Levelshifting, if invoked, occurs when the 
          HOMO/LUMO gap drops below (HL_TOL):  1.00D-02
          DIIS, if invoked, will attempt to extrapolate 
          using up to (NFOCK): 10 stored Fock matrices.

                    Damping( 0%)  Levelshifting(0.5)       DIIS
                  --------------- ------------------- ---------------
          dE  on:    start            ASAP                start   
          dE off:    2 iters         50 iters            50 iters 


      Screening Tolerance Information
      -------------------------------
          Density screening/tol_rho:  1.00D-11
          AO Gaussian exp screening on grid/accAOfunc:  18
          CD Gaussian exp screening on grid/accCDfunc:  20
          XC Gaussian exp screening on grid/accXCfunc:  20
          Schwarz screening/accCoul:  1.00D-09


      Superposition of Atomic Density Guess
      -------------------------------------

 Sum of atomic energies:        -115.99411233

      Non-variational initial energy
      ------------------------------

 Total energy =    -117.884046
 1-e energy   =    -292.865688
 2-e energy   =     104.636381
 HOMO         =      -0.281364
 LUMO         =       0.036906


      Symmetry analysis of molecular orbitals - initial
      -------------------------------------------------

  Numbering of irreducible representations: 

     1 a'          2 a"      

  Orbital symmetries:

     1 a'          2 a'          3 a'          4 a'          5 a'      
     6 a'          7 a'          8 a'          9 a"         10 a'      
    11 a'         12 a"         13 a"         14 a'         15 a'      
    16 a'         17 a'         18 a"         19 a'         20 a'      
    21 a'         22 a"      

   Time after variat. SCF:      0.6
   Time prior to 1st pass:      0.6

 Grid_pts file          = ./propene-dat.gridpts.00
 Record size in doubles =  12289        No. of grid_pts per rec  =   3070
 Max. records in memory =      5        Max. recs in file   =    120861


           Memory utilization after 1st SCF pass: 
           Heap Space remaining (MW):       13.04            13041590
          Stack Space remaining (MW):       65.54            65535380

   convergence    iter        energy       DeltaE   RMS-Dens  Diis-err    time
 ---------------- ----- ----------------- --------- --------- ---------  ------
 d= 0,ls=0.0,diis     1   -117.6108668168 -1.88D+02  1.03D-02  3.07D-01     1.0
 d= 0,ls=0.0,diis     2   -117.5960664348  1.48D-02  8.90D-03  3.39D-01     1.2
 d= 0,ls=0.0,diis     3   -117.6151482432 -1.91D-02  3.94D-03  2.12D-01     1.5
 d= 0,ls=0.0,diis     4   -117.6450591046 -2.99D-02  4.87D-04  1.42D-03     1.8
 d= 0,ls=0.0,diis     5   -117.6452243198 -1.65D-04  1.80D-04  2.33D-04     2.1
  Resetting Diis
 d= 0,ls=0.0,diis     6   -117.6452558583 -3.15D-05  4.44D-05  1.63D-05     2.4
 d= 0,ls=0.0,diis     7   -117.6452580299 -2.17D-06  2.56D-05  1.13D-06     2.7
 d= 0,ls=0.0,diis     8   -117.6452577310  2.99D-07  1.73D-05  3.30D-06     3.0
 d= 0,ls=0.0,diis     9   -117.6452581759 -4.45D-07  2.33D-06  4.09D-08     3.3
 d= 0,ls=0.0,diis    10   -117.6452581800 -4.10D-09  1.03D-06  1.12D-08     3.6
 d= 0,ls=0.0,diis    11   -117.6452581816 -1.55D-09  1.63D-07  2.19D-10     3.9
 d= 0,ls=0.0,diis    12   -117.6452581816 -3.25D-11  3.59D-08  9.19D-12     4.2


         Total DFT energy =     -117.645258181583
      One electron energy =     -295.969649576410
           Coulomb energy =      126.225792309610
    Exchange-Corr. energy =      -18.246661438166
 Nuclear repulsion energy =       70.345260523383

 Numeric. integr. density =       24.000001607199

     Total iterative time =      3.6s



                  Occupations of the irreducible representations
                  ----------------------------------------------

                     irrep           alpha         beta
                     --------     --------     --------
                     a'               10.0         10.0
                     a"                2.0          2.0


                       DFT Final Molecular Orbital Analysis
                       ------------------------------------

 Vector    1  Occ=2.000000D+00  E=-9.918326D+00  Symmetry=a'
              MO Center= -4.1D-01,  1.2D-01, -1.5D-18, r^2= 2.8D-02
   Bfn.  Coefficient  Atom+Function         Bfn.  Coefficient  Atom+Function  
  ----- ------------  ---------------      ----- ------------  ---------------
    15      1.007411  2 C  s          

 Vector    2  Occ=2.000000D+00  E=-9.907035D+00  Symmetry=a'
              MO Center=  2.5D-01, -1.2D+00,  1.6D-18, r^2= 2.8D-02
   Bfn.  Coefficient  Atom+Function         Bfn.  Coefficient  Atom+Function  
  ----- ------------  ---------------      ----- ------------  ---------------
     1      1.007590  1 C  s          

 Vector    3  Occ=2.000000D+00  E=-9.874411D+00  Symmetry=a'
              MO Center=  2.5D-01,  1.3D+00,  2.0D-20, r^2= 2.8D-02
   Bfn.  Coefficient  Atom+Function         Bfn.  Coefficient  Atom+Function  
  ----- ------------  ---------------      ----- ------------  ---------------
    29      1.007139  3 C  s          

 Vector    4  Occ=2.000000D+00  E=-7.205528D-01  Symmetry=a'
              MO Center= -1.5D-01, -2.5D-01, -5.1D-16, r^2= 1.5D+00
   Bfn.  Coefficient  Atom+Function         Bfn.  Coefficient  Atom+Function  
  ----- ------------  ---------------      ----- ------------  ---------------
    16      0.297815  2 C  s                  2      0.244210  1 C  s          
    17      0.227837  2 C  s                 30      0.169723  3 C  s          
     3      0.128149  1 C  s                 48      0.111611  5 H  s          
    53      0.111611  6 H  s                 58      0.110334  7 H  s          
    31      0.078589  3 C  s                 43      0.077572  4 H  s          

 Vector    5  Occ=2.000000D+00  E=-6.182810D-01  Symmetry=a'
              MO Center=  7.0D-02,  5.4D-02, -6.7D-17, r^2= 2.6D+00
   Bfn.  Coefficient  Atom+Function         Bfn.  Coefficient  Atom+Function  
  ----- ------------  ---------------      ----- ------------  ---------------
    30      0.283905  3 C  s                  2     -0.252672  1 C  s          
    19      0.215689  2 C  py                31      0.193895  3 C  s          
     3     -0.167998  1 C  s                 43     -0.148619  4 H  s          
    68      0.127631  9 H  s                 48     -0.121603  5 H  s          
    53     -0.121603  6 H  s                 63      0.112535  8 H  s          

 Vector    6  Occ=2.000000D+00  E=-4.987919D-01  Symmetry=a'
              MO Center=  9.6D-02, -1.8D-01, -3.4D-16, r^2= 3.2D+00
   Bfn.  Coefficient  Atom+Function         Bfn.  Coefficient  Atom+Function  
  ----- ------------  ---------------      ----- ------------  ---------------
    43      0.257536  4 H  s                 16     -0.206413  2 C  s          
    58     -0.204525  7 H  s                 30      0.186804  3 C  s          
     5     -0.179449  1 C  py                17     -0.178802  2 C  s          
    63      0.162861  8 H  s                  3      0.157419  1 C  s          
     4      0.147937  1 C  px                18      0.140879  2 C  px         

 Vector    7  Occ=2.000000D+00  E=-4.140935D-01  Symmetry=a'
              MO Center= -2.1D-03, -2.7D-02, -3.7D-16, r^2= 2.7D+00
   Bfn.  Coefficient  Atom+Function         Bfn.  Coefficient  Atom+Function  
  ----- ------------  ---------------      ----- ------------  ---------------
    18      0.268831  2 C  px                 5      0.266408  1 C  py         
    32      0.238465  3 C  px                43     -0.231126  4 H  s          
    58     -0.219941  7 H  s                 19     -0.198178  2 C  py         
    63      0.179001  8 H  s                  4     -0.141099  1 C  px         
    22     -0.132288  2 C  py                44     -0.117075  4 H  s          

 Vector    8  Occ=2.000000D+00  E=-3.938666D-01  Symmetry=a'
              MO Center=  6.2D-02,  6.4D-01, -1.1D-15, r^2= 2.7D+00
   Bfn.  Coefficient  Atom+Function         Bfn.  Coefficient  Atom+Function  
  ----- ------------  ---------------      ----- ------------  ---------------
    33      0.365398  3 C  py                68      0.251135  9 H  s          
     4     -0.215320  1 C  px                18     -0.205045  2 C  px         
    19     -0.205000  2 C  py                43     -0.142255  4 H  s          
    36      0.121164  3 C  py                16     -0.114263  2 C  s          
    48      0.110651  5 H  s                 53      0.110651  6 H  s          

 Vector    9  Occ=2.000000D+00  E=-3.642752D-01  Symmetry=a"
              MO Center= -1.6D-01, -1.0D+00,  2.8D-17, r^2= 1.6D+00
   Bfn.  Coefficient  Atom+Function         Bfn.  Coefficient  Atom+Function  
  ----- ------------  ---------------      ----- ------------  ---------------
     6      0.386387  1 C  pz                48      0.272067  5 H  s          
    53     -0.272067  6 H  s                 20      0.230698  2 C  pz         
     9      0.161455  1 C  pz                49      0.121925  5 H  s          
    54     -0.121925  6 H  s                 23      0.117412  2 C  pz         
    34      0.084853  3 C  pz                37      0.033721  3 C  pz         

 Vector   10  Occ=2.000000D+00  E=-3.129265D-01  Symmetry=a'
              MO Center=  7.3D-02,  8.9D-01, -1.3D-16, r^2= 2.5D+00
   Bfn.  Coefficient  Atom+Function         Bfn.  Coefficient  Atom+Function  
  ----- ------------  ---------------      ----- ------------  ---------------
    32      0.349387  3 C  px                63      0.316245  8 H  s          
    58      0.267145  7 H  s                 18     -0.242442  2 C  px         
    68     -0.240102  9 H  s                 64      0.192587  8 H  s          
    59      0.167753  7 H  s                 69     -0.145093  9 H  s          
     3     -0.140412  1 C  s                  5     -0.127792  1 C  py         

 Vector   11  Occ=2.000000D+00  E=-2.516044D-01  Symmetry=a'
              MO Center= -1.0D-02, -7.3D-01,  5.8D-16, r^2= 2.3D+00
   Bfn.  Coefficient  Atom+Function         Bfn.  Coefficient  Atom+Function  
  ----- ------------  ---------------      ----- ------------  ---------------
     4      0.318403  1 C  px                 5      0.283390  1 C  py         
    19     -0.264059  2 C  py                 8      0.216985  1 C  py         
    33      0.212511  3 C  py                48     -0.212924  5 H  s          
    53     -0.212924  6 H  s                  7      0.156839  1 C  px         
    49     -0.150941  5 H  s                 54     -0.150941  6 H  s          

 Vector   12  Occ=2.000000D+00  E=-2.051283D-01  Symmetry=a"
              MO Center= -3.4D-02,  5.0D-01, -6.6D-16, r^2= 2.1D+00
   Bfn.  Coefficient  Atom+Function         Bfn.  Coefficient  Atom+Function  
  ----- ------------  ---------------      ----- ------------  ---------------
    34      0.420122  3 C  pz                20      0.356215  2 C  pz         
    37      0.293860  3 C  pz                23      0.249410  2 C  pz         
     6     -0.186085  1 C  pz                48     -0.142133  5 H  s          
    53      0.142133  6 H  s                  9     -0.118943  1 C  pz         
    49     -0.102791  5 H  s                 54      0.102791  6 H  s          

 Vector   13  Occ=0.000000D+00  E=-2.586314D-03  Symmetry=a"
              MO Center= -7.1D-02,  5.7D-01,  5.5D-16, r^2= 2.3D+00
   Bfn.  Coefficient  Atom+Function         Bfn.  Coefficient  Atom+Function  
  ----- ------------  ---------------      ----- ------------  ---------------
    23      0.661960  2 C  pz                37     -0.601982  3 C  pz         
    20      0.478912  2 C  pz                34     -0.408585  3 C  pz         
     9     -0.282841  1 C  pz                 6     -0.146555  1 C  pz         
    48     -0.050169  5 H  s                 53      0.050169  6 H  s          
    11      0.029584  1 C  d -1              39     -0.026191  3 C  d -1       

 Vector   14  Occ=0.000000D+00  E= 1.679791D-02  Symmetry=a'
              MO Center= -5.4D-01, -8.2D-01,  3.4D-16, r^2= 4.0D+00
   Bfn.  Coefficient  Atom+Function         Bfn.  Coefficient  Atom+Function  
  ----- ------------  ---------------      ----- ------------  ---------------
    17      0.853816  2 C  s                 59     -0.756519  7 H  s          
    49     -0.752386  5 H  s                 54     -0.752386  6 H  s          
     7     -0.537992  1 C  px                 3      0.402010  1 C  s          
    44      0.352803  4 H  s                 31      0.338093  3 C  s          
    21     -0.306081  2 C  px                64     -0.241766  8 H  s          

 Vector   15  Occ=0.000000D+00  E= 6.283529D-02  Symmetry=a'
              MO Center=  6.1D-01, -1.7D+00, -1.6D-16, r^2= 4.1D+00
   Bfn.  Coefficient  Atom+Function         Bfn.  Coefficient  Atom+Function  
  ----- ------------  ---------------      ----- ------------  ---------------
     3      1.833455  1 C  s                 44     -1.583222  4 H  s          
    49     -0.435474  5 H  s                 54     -0.435474  6 H  s          
     8     -0.401851  1 C  py                64      0.403466  8 H  s          
     7      0.274668  1 C  px                35     -0.247252  3 C  px         
     2      0.214438  1 C  s                 69     -0.192055  9 H  s          

 Vector   16  Occ=0.000000D+00  E= 7.915870D-02  Symmetry=a"
              MO Center= -4.5D-01, -1.4D+00, -6.6D-15, r^2= 3.2D+00
   Bfn.  Coefficient  Atom+Function         Bfn.  Coefficient  Atom+Function  
  ----- ------------  ---------------      ----- ------------  ---------------
    49      1.320900  5 H  s                 54     -1.320900  6 H  s          
     9     -1.004958  1 C  pz                 6     -0.412508  1 C  pz         
    48      0.196602  5 H  s                 53     -0.196602  6 H  s          
    20     -0.113385  2 C  pz                37      0.091327  3 C  pz         
    23     -0.071794  2 C  pz                34      0.056391  3 C  pz         

 Vector   17  Occ=0.000000D+00  E= 8.792497D-02  Symmetry=a'
              MO Center= -4.9D-01,  6.0D-01,  9.9D-15, r^2= 5.6D+00
   Bfn.  Coefficient  Atom+Function         Bfn.  Coefficient  Atom+Function  
  ----- ------------  ---------------      ----- ------------  ---------------
    59      1.330351  7 H  s                 69      0.944623  9 H  s          
    64     -0.879587  8 H  s                 21      0.622669  2 C  px         
    35      0.510087  3 C  px                17     -0.491737  2 C  s          
     8     -0.483192  1 C  py                49     -0.467431  5 H  s          
    54     -0.467431  6 H  s                  3      0.398630  1 C  s          

 Vector   18  Occ=0.000000D+00  E= 9.059842D-02  Symmetry=a'
              MO Center=  6.1D-01,  1.6D+00, -1.6D-15, r^2= 4.7D+00
   Bfn.  Coefficient  Atom+Function         Bfn.  Coefficient  Atom+Function  
  ----- ------------  ---------------      ----- ------------  ---------------
    31      1.724564  3 C  s                 64     -1.291887  8 H  s          
    69     -1.212553  9 H  s                 36      0.501079  3 C  py         
    44     -0.467580  4 H  s                  7      0.336352  1 C  px         
    35      0.284701  3 C  px                59      0.234526  7 H  s          
    49      0.225519  5 H  s                 54      0.225519  6 H  s          

 Vector   19  Occ=0.000000D+00  E= 1.514372D-01  Symmetry=a'
              MO Center= -3.8D-01,  4.1D-01,  4.2D-17, r^2= 7.3D+00
   Bfn.  Coefficient  Atom+Function         Bfn.  Coefficient  Atom+Function  
  ----- ------------  ---------------      ----- ------------  ---------------
    17      1.621746  2 C  s                 59     -1.451365  7 H  s          
    69      1.300179  9 H  s                 44     -1.255663  4 H  s          
    64     -0.941602  8 H  s                 35      0.909780  3 C  px         
     7      0.813784  1 C  px                49      0.615524  5 H  s          
    54      0.615524  6 H  s                 21     -0.599722  2 C  px         

 Vector   20  Occ=0.000000D+00  E= 2.053320D-01  Symmetry=a'
              MO Center=  4.6D-01, -3.2D-01, -7.4D-16, r^2= 6.2D+00
   Bfn.  Coefficient  Atom+Function         Bfn.  Coefficient  Atom+Function  
  ----- ------------  ---------------      ----- ------------  ---------------
    17      2.180591  2 C  s                  8     -1.930504  1 C  py         
    44     -1.826580  4 H  s                  3     -1.544884  1 C  s          
    21      1.498882  2 C  px                22     -1.294230  2 C  py         
    64      1.210723  8 H  s                  7      1.036228  1 C  px         
    69     -0.985391  9 H  s                 36      0.961572  3 C  py         

 Vector   21  Occ=0.000000D+00  E= 2.748984D-01  Symmetry=a'
              MO Center=  1.4D-01,  6.5D-01, -5.2D-16, r^2= 4.5D+00
   Bfn.  Coefficient  Atom+Function         Bfn.  Coefficient  Atom+Function  
  ----- ------------  ---------------      ----- ------------  ---------------
    31      3.552930  3 C  s                 17     -3.100992  2 C  s          
    22     -2.965146  2 C  py                36     -2.601293  3 C  py         
    35     -1.511518  3 C  px                21     -1.484773  2 C  px         
     7      0.705588  1 C  px                64      0.601796  8 H  s          
    59     -0.575369  7 H  s                 44     -0.460058  4 H  s          

 Vector   22  Occ=0.000000D+00  E= 3.657547D-01  Symmetry=a"
              MO Center=  1.1D-01, -1.3D+00, -1.6D-14, r^2= 3.2D+00
   Bfn.  Coefficient  Atom+Function         Bfn.  Coefficient  Atom+Function  
  ----- ------------  ---------------      ----- ------------  ---------------
     9      0.731569  1 C  pz                48     -0.672562  5 H  s          
    53      0.672562  6 H  s                 49      0.668296  5 H  s          
    54     -0.668296  6 H  s                 23     -0.325541  2 C  pz         
    37      0.276423  3 C  pz                 6     -0.262505  1 C  pz         
    34     -0.262048  3 C  pz                13     -0.145262  1 C  d  1       

 Vector   23  Occ=0.000000D+00  E= 3.881435D-01  Symmetry=a'
              MO Center= -3.4D-01,  6.2D-01,  5.2D-15, r^2= 3.9D+00
   Bfn.  Coefficient  Atom+Function         Bfn.  Coefficient  Atom+Function  
  ----- ------------  ---------------      ----- ------------  ---------------
    22      1.259437  2 C  py                17     -0.757488  2 C  s          
     3      0.571630  1 C  s                 36     -0.551421  3 C  py         
    63      0.450253  8 H  s                 58     -0.408022  7 H  s          
    19     -0.404041  2 C  py                31     -0.403988  3 C  s          
    49      0.396335  5 H  s                 54      0.396335  6 H  s          

 Vector   24  Occ=0.000000D+00  E= 4.133431D-01  Symmetry=a'
              MO Center= -6.5D-02, -2.0D-01,  8.5D-15, r^2= 4.0D+00
   Bfn.  Coefficient  Atom+Function         Bfn.  Coefficient  Atom+Function  
  ----- ------------  ---------------      ----- ------------  ---------------
    22      0.897807  2 C  py                 3      0.568533  1 C  s          
    58      0.498517  7 H  s                 31     -0.483892  3 C  s          
    21      0.446716  2 C  px                36     -0.434138  3 C  py         
    68      0.418960  9 H  s                 43     -0.401326  4 H  s          
    59     -0.318408  7 H  s                 49      0.300819  5 H  s          

 Vector   25  Occ=0.000000D+00  E= 4.559427D-01  Symmetry=a'
              MO Center=  1.9D-01,  2.9D-01, -1.1D-14, r^2= 3.7D+00
   Bfn.  Coefficient  Atom+Function         Bfn.  Coefficient  Atom+Function  
  ----- ------------  ---------------      ----- ------------  ---------------
     8      0.631230  1 C  py                63     -0.534702  8 H  s          
    22      0.531293  2 C  py                17      0.493225  2 C  s          
     5     -0.473339  1 C  py                68     -0.452694  9 H  s          
     7      0.367673  1 C  px                36      0.341147  3 C  py         
    58     -0.337783  7 H  s                 59      0.339387  7 H  s          

 Vector   26  Occ=0.000000D+00  E= 4.751939D-01  Symmetry=a"
              MO Center= -7.4D-03,  7.4D-01,  9.9D-15, r^2= 3.0D+00
   Bfn.  Coefficient  Atom+Function         Bfn.  Coefficient  Atom+Function  
  ----- ------------  ---------------      ----- ------------  ---------------
    34      0.753997  3 C  pz                37     -0.718847  3 C  pz         
    23     -0.631445  2 C  pz                20      0.539625  2 C  pz         
     9      0.364211  1 C  pz                49      0.206854  5 H  s          
    54     -0.206854  6 H  s                  6     -0.148011  1 C  pz         
    25      0.099917  2 C  d -1              48     -0.098409  5 H  s          

 Vector   27  Occ=0.000000D+00  E= 4.982726D-01  Symmetry=a'
              MO Center=  7.7D-02,  5.4D-01, -1.3D-16, r^2= 4.0D+00
   Bfn.  Coefficient  Atom+Function         Bfn.  Coefficient  Atom+Function  
  ----- ------------  ---------------      ----- ------------  ---------------
     8      0.907460  1 C  py                69     -0.612649  9 H  s          
    63      0.566503  8 H  s                 22      0.543615  2 C  py         
    68      0.532093  9 H  s                 64     -0.472018  8 H  s          
    44      0.412982  4 H  s                 31     -0.390768  3 C  s          
     5     -0.376369  1 C  py                 3      0.359196  1 C  s          

 Vector   28  Occ=0.000000D+00  E= 5.405612D-01  Symmetry=a"
              MO Center= -1.8D-01, -5.3D-01,  2.2D-16, r^2= 3.8D+00
   Bfn.  Coefficient  Atom+Function         Bfn.  Coefficient  Atom+Function  
  ----- ------------  ---------------      ----- ------------  ---------------
     9      1.332469  1 C  pz                49     -0.975071  5 H  s          
    54      0.975071  6 H  s                 23     -0.866094  2 C  pz         
    37      0.705644  3 C  pz                 6     -0.699865  1 C  pz         
    20      0.437108  2 C  pz                34     -0.412383  3 C  pz         
    48      0.327502  5 H  s                 53     -0.327502  6 H  s          

 Vector   29  Occ=0.000000D+00  E= 5.630995D-01  Symmetry=a'
              MO Center= -1.8D-01, -6.8D-01, -1.0D-14, r^2= 4.1D+00
   Bfn.  Coefficient  Atom+Function         Bfn.  Coefficient  Atom+Function  
  ----- ------------  ---------------      ----- ------------  ---------------
     7      1.605793  1 C  px                 3     -1.191448  1 C  s          
    49      0.980076  5 H  s                 54      0.980076  6 H  s          
    44     -0.885166  4 H  s                 64     -0.838114  8 H  s          
    35      0.708437  3 C  px                 4     -0.652264  1 C  px         
    17      0.517407  2 C  s                 59      0.437027  7 H  s          

 Vector   30  Occ=0.000000D+00  E= 5.900149D-01  Symmetry=a"
              MO Center= -1.1D-01, -1.9D-01,  9.5D-15, r^2= 3.9D+00
   Bfn.  Coefficient  Atom+Function         Bfn.  Coefficient  Atom+Function  
  ----- ------------  ---------------      ----- ------------  ---------------
    23      1.241581  2 C  pz                49     -1.196766  5 H  s          
    54      1.196766  6 H  s                  9      1.063207  1 C  pz         
    37     -0.899157  3 C  pz                20     -0.718254  2 C  pz         
     6     -0.550293  1 C  pz                34      0.407412  3 C  pz         
    48      0.131655  5 H  s                 53     -0.131655  6 H  s          

 Vector   31  Occ=0.000000D+00  E= 5.949841D-01  Symmetry=a'
              MO Center= -6.6D-01, -4.3D-01, -8.5D-16, r^2= 4.0D+00
   Bfn.  Coefficient  Atom+Function         Bfn.  Coefficient  Atom+Function  
  ----- ------------  ---------------      ----- ------------  ---------------
    21      2.017561  2 C  px                59      1.960072  7 H  s          
    22     -1.150018  2 C  py                 7     -0.842997  1 C  px         
     3     -0.825759  1 C  s                 44      0.778066  4 H  s          
     8     -0.766343  1 C  py                49     -0.732432  5 H  s          
    54     -0.732432  6 H  s                 18     -0.643605  2 C  px         

 Vector   32  Occ=0.000000D+00  E= 6.262701D-01  Symmetry=a'
              MO Center=  2.5D-01,  1.2D+00, -5.9D-16, r^2= 3.9D+00
   Bfn.  Coefficient  Atom+Function         Bfn.  Coefficient  Atom+Function  
  ----- ------------  ---------------      ----- ------------  ---------------
    69      1.746300  9 H  s                 35      1.638393  3 C  px         
    36     -1.533942  3 C  py                64     -1.419310  8 H  s          
    21     -1.210159  2 C  px                17     -1.123281  2 C  s          
     8      0.828623  1 C  py                44      0.772210  4 H  s          
     7     -0.699313  1 C  px                 3      0.671117  1 C  s          

 Vector   33  Occ=0.000000D+00  E= 6.595714D-01  Symmetry=a'
              MO Center=  4.2D-01, -1.1D+00,  1.2D-15, r^2= 4.2D+00
   Bfn.  Coefficient  Atom+Function         Bfn.  Coefficient  Atom+Function  
  ----- ------------  ---------------      ----- ------------  ---------------
     8      2.616816  1 C  py                44      2.177946  4 H  s          
    22      1.837471  2 C  py                 7     -1.486165  1 C  px         
    17     -1.272117  2 C  s                 21     -1.130661  2 C  px         
    36      0.863453  3 C  py                59     -0.731727  7 H  s          
    69     -0.664595  9 H  s                  5     -0.570517  1 C  py         

 Vector   34  Occ=0.000000D+00  E= 6.910590D-01  Symmetry=a'
              MO Center=  4.1D-02,  4.1D-01,  4.7D-15, r^2= 3.6D+00
   Bfn.  Coefficient  Atom+Function         Bfn.  Coefficient  Atom+Function  
  ----- ------------  ---------------      ----- ------------  ---------------
    17      2.239613  2 C  s                 22      1.862720  2 C  py         
    36      1.804495  3 C  py                35      1.461865  3 C  px         
    21      1.375719  2 C  px                31     -1.327071  3 C  s          
    64     -1.181887  8 H  s                  3      0.812998  1 C  s          
    59      0.747894  7 H  s                 69     -0.582273  9 H  s          

 Vector   35  Occ=0.000000D+00  E= 7.450093D-01  Symmetry=a'
              MO Center=  3.7D-01, -1.6D-01, -1.7D-15, r^2= 4.2D+00
   Bfn.  Coefficient  Atom+Function         Bfn.  Coefficient  Atom+Function  
  ----- ------------  ---------------      ----- ------------  ---------------
     8      1.803452  1 C  py                22      1.711828  2 C  py         
     7     -1.542894  1 C  px                35      1.379501  3 C  px         
    44      1.140371  4 H  s                 64     -1.013111  8 H  s          
    30     -0.840553  3 C  s                 43      0.796953  4 H  s          
    31      0.669274  3 C  s                 16     -0.638346  2 C  s          

 Vector   36  Occ=0.000000D+00  E= 8.063697D-01  Symmetry=a'
              MO Center= -3.4D-01, -6.0D-01, -1.5D-14, r^2= 2.9D+00
   Bfn.  Coefficient  Atom+Function         Bfn.  Coefficient  Atom+Function  
  ----- ------------  ---------------      ----- ------------  ---------------
    22      3.339801  2 C  py                 3      3.297424  1 C  s          
    17     -3.160518  2 C  s                  8      2.303482  1 C  py         
    35      1.464774  3 C  px                 7     -1.403952  1 C  px         
    31     -1.113398  3 C  s                 16      0.959747  2 C  s          
    21     -0.644491  2 C  px                44      0.644005  4 H  s          

 Vector   37  Occ=0.000000D+00  E= 8.082919D-01  Symmetry=a"
              MO Center= -1.0D-01, -3.4D-01,  2.0D-15, r^2= 2.3D+00
   Bfn.  Coefficient  Atom+Function         Bfn.  Coefficient  Atom+Function  
  ----- ------------  ---------------      ----- ------------  ---------------
    11      0.398121  1 C  d -1              25     -0.340217  2 C  d -1       
    27     -0.290656  2 C  d  1              49      0.291911  5 H  s          
    54     -0.291911  6 H  s                 41     -0.278283  3 C  d  1       
    51      0.184549  5 H  py                56     -0.184549  6 H  py         
    23     -0.179861  2 C  pz                47     -0.168067  4 H  pz         

 Vector   38  Occ=0.000000D+00  E= 8.457875D-01  Symmetry=a'
              MO Center=  1.7D-01, -4.0D-01,  1.1D-14, r^2= 4.7D+00
   Bfn.  Coefficient  Atom+Function         Bfn.  Coefficient  Atom+Function  
  ----- ------------  ---------------      ----- ------------  ---------------
    31      3.462178  3 C  s                 22     -1.878272  2 C  py         
     8     -1.835193  1 C  py                44     -1.448322  4 H  s          
     3      1.384413  1 C  s                  7      1.382305  1 C  px         
    30     -0.998809  3 C  s                 21     -0.956794  2 C  px         
    17      0.818248  2 C  s                  2     -0.739640  1 C  s          

 Vector   39  Occ=0.000000D+00  E= 9.242872D-01  Symmetry=a"
              MO Center= -9.6D-02,  7.7D-01,  3.7D-17, r^2= 2.2D+00
   Bfn.  Coefficient  Atom+Function         Bfn.  Coefficient  Atom+Function  
  ----- ------------  ---------------      ----- ------------  ---------------
    39      0.453489  3 C  d -1               9      0.420998  1 C  pz         
    27      0.332457  2 C  d  1              72      0.313962  9 H  pz         
    23     -0.263981  2 C  pz                25     -0.247068  2 C  d -1       
    41      0.193077  3 C  d  1              34      0.174862  3 C  pz         
    51      0.170482  5 H  py                56     -0.170482  6 H  py         

 Vector   40  Occ=0.000000D+00  E= 9.766723D-01  Symmetry=a"
              MO Center=  1.1D-01,  7.5D-01,  7.1D-15, r^2= 2.4D+00
   Bfn.  Coefficient  Atom+Function         Bfn.  Coefficient  Atom+Function  
  ----- ------------  ---------------      ----- ------------  ---------------
    41      0.478891  3 C  d  1              67     -0.370012  8 H  pz         
    27     -0.334306  2 C  d  1              62     -0.293515  7 H  pz         
    11      0.205706  1 C  d -1              72      0.190194  9 H  pz         
    47     -0.129218  4 H  pz                25      0.121264  2 C  d -1       
    49      0.118306  5 H  s                 54     -0.118306  6 H  s          

 Vector   41  Occ=0.000000D+00  E= 9.857788D-01  Symmetry=a'
              MO Center= -4.8D-01,  7.4D-01, -7.6D-15, r^2= 3.4D+00
   Bfn.  Coefficient  Atom+Function         Bfn.  Coefficient  Atom+Function  
  ----- ------------  ---------------      ----- ------------  ---------------
    31     -4.373314  3 C  s                 17      4.343720  2 C  s          
    22      2.655290  2 C  py                35      2.615355  3 C  px         
     3      1.473930  1 C  s                 21     -1.272218  2 C  px         
    59     -0.967712  7 H  s                 69      0.940242  9 H  s          
    16     -0.927539  2 C  s                 30      0.918339  3 C  s          

 Vector   42  Occ=0.000000D+00  E= 1.071636D+00  Symmetry=a'
              MO Center=  3.6D-01,  1.3D-01, -3.3D-16, r^2= 3.1D+00
   Bfn.  Coefficient  Atom+Function         Bfn.  Coefficient  Atom+Function  
  ----- ------------  ---------------      ----- ------------  ---------------
    31      3.792529  3 C  s                 17     -2.616687  2 C  s          
    21     -2.336966  2 C  px                36     -2.281592  3 C  py         
    22     -1.167450  2 C  py                 7      0.922104  1 C  px         
    16      0.866406  2 C  s                  3     -0.765078  1 C  s          
    35      0.742631  3 C  px                 2      0.735243  1 C  s          

 Vector   43  Occ=0.000000D+00  E= 1.209527D+00  Symmetry=a'
              MO Center=  7.9D-02, -5.8D-01, -3.1D-15, r^2= 3.3D+00
   Bfn.  Coefficient  Atom+Function         Bfn.  Coefficient  Atom+Function  
  ----- ------------  ---------------      ----- ------------  ---------------
    21      3.134907  2 C  px                31     -2.763296  3 C  s          
    17      2.574368  2 C  s                  3     -2.384365  1 C  s          
     8     -1.423414  1 C  py                36      1.078112  3 C  py         
    35     -1.006429  3 C  px                59      0.928846  7 H  s          
    58      0.756655  7 H  s                 63      0.600755  8 H  s          

 Vector   44  Occ=0.000000D+00  E= 1.303087D+00  Symmetry=a"
              MO Center=  8.4D-02, -1.3D+00, -7.7D-15, r^2= 2.3D+00
   Bfn.  Coefficient  Atom+Function         Bfn.  Coefficient  Atom+Function  
  ----- ------------  ---------------      ----- ------------  ---------------
    47      0.639535  4 H  pz                 9     -0.352744  1 C  pz         
    25     -0.339548  2 C  d -1              50     -0.314308  5 H  px         
    55      0.314308  6 H  px                23      0.307252  2 C  pz         
    62     -0.272933  7 H  pz                11     -0.269559  1 C  d -1       
    27     -0.206132  2 C  d  1              52     -0.194660  5 H  pz         

 Vector   45  Occ=0.000000D+00  E= 1.313753D+00  Symmetry=a'
              MO Center= -1.2D-01, -8.3D-01,  1.1D-14, r^2= 2.5D+00
   Bfn.  Coefficient  Atom+Function         Bfn.  Coefficient  Atom+Function  
  ----- ------------  ---------------      ----- ------------  ---------------
     3      5.442460  1 C  s                 17     -4.795809  2 C  s          
     7     -2.673292  1 C  px                 8      2.500852  1 C  py         
    22      2.394950  2 C  py                 2     -1.327825  1 C  s          
    21     -1.168355  2 C  px                44      0.917397  4 H  s          
    48     -0.781528  5 H  s                 53     -0.781528  6 H  s          

 Vector   46  Occ=0.000000D+00  E= 1.380992D+00  Symmetry=a"
              MO Center= -2.0D-01, -8.0D-02, -1.9D-14, r^2= 3.2D+00
   Bfn.  Coefficient  Atom+Function         Bfn.  Coefficient  Atom+Function  
  ----- ------------  ---------------      ----- ------------  ---------------
    23      0.873310  2 C  pz                37     -0.587917  3 C  pz         
    39      0.420052  3 C  d -1              11     -0.416452  1 C  d -1       
    27     -0.345749  2 C  d  1              72      0.342413  9 H  pz         
    50      0.337581  5 H  px                55     -0.337581  6 H  px         
     9     -0.327501  1 C  pz                62     -0.301526  7 H  pz         

 Vector   47  Occ=0.000000D+00  E= 1.398469D+00  Symmetry=a'
              MO Center=  3.8D-01,  8.9D-01, -1.4D-15, r^2= 3.0D+00
   Bfn.  Coefficient  Atom+Function         Bfn.  Coefficient  Atom+Function  
  ----- ------------  ---------------      ----- ------------  ---------------
    17      2.665462  2 C  s                  8     -1.575869  1 C  py         
     3     -1.464845  1 C  s                 36      1.311430  3 C  py         
    21      1.158071  2 C  px                22     -1.163522  2 C  py         
    68     -0.797918  9 H  s                  7      0.645616  1 C  px         
    44     -0.552038  4 H  s                 35     -0.534418  3 C  px         

 Vector   48  Occ=0.000000D+00  E= 1.423485D+00  Symmetry=a'
              MO Center= -4.1D-01, -2.9D-01,  2.7D-14, r^2= 3.0D+00
   Bfn.  Coefficient  Atom+Function         Bfn.  Coefficient  Atom+Function  
  ----- ------------  ---------------      ----- ------------  ---------------
    22      2.412637  2 C  py                 3      2.185718  1 C  s          
     8      2.163651  1 C  py                17     -2.052701  2 C  s          
    21     -1.841376  2 C  px                 7     -1.291834  1 C  px         
    35      0.935703  3 C  px                44      0.739177  4 H  s          
    59     -0.535210  7 H  s                 58     -0.528205  7 H  s          

 Vector   49  Occ=0.000000D+00  E= 1.434869D+00  Symmetry=a'
              MO Center=  3.1D-01,  1.5D+00,  1.2D-15, r^2= 2.4D+00
   Bfn.  Coefficient  Atom+Function         Bfn.  Coefficient  Atom+Function  
  ----- ------------  ---------------      ----- ------------  ---------------
    35      1.941050  3 C  px                22      0.844370  2 C  py         
    63     -0.789520  8 H  s                 70     -0.677817  9 H  px         
    17      0.641110  2 C  s                 64     -0.612406  8 H  s          
    21     -0.553712  2 C  px                69      0.506524  9 H  s          
    68      0.407198  9 H  s                 31     -0.374026  3 C  s          

 Vector   50  Occ=0.000000D+00  E= 1.449117D+00  Symmetry=a"
              MO Center= -2.3D-01, -6.7D-01,  1.3D-14, r^2= 3.0D+00
   Bfn.  Coefficient  Atom+Function         Bfn.  Coefficient  Atom+Function  
  ----- ------------  ---------------      ----- ------------  ---------------
    51      0.450622  5 H  py                56     -0.450622  6 H  py         
    37      0.417910  3 C  pz                23     -0.408913  2 C  pz         
    72     -0.325969  9 H  pz                13      0.315099  1 C  d  1       
    50      0.299823  5 H  px                55     -0.299823  6 H  px         
    27      0.296396  2 C  d  1              49      0.294074  5 H  s          

 Vector   51  Occ=0.000000D+00  E= 1.493077D+00  Symmetry=a"
              MO Center= -7.8D-02, -7.4D-01, -6.8D-15, r^2= 2.8D+00
   Bfn.  Coefficient  Atom+Function         Bfn.  Coefficient  Atom+Function  
  ----- ------------  ---------------      ----- ------------  ---------------
    13      0.492446  1 C  d  1               9      0.482328  1 C  pz         
    48     -0.407822  5 H  s                 53      0.407822  6 H  s          
    67     -0.403216  8 H  pz                52     -0.390447  5 H  pz         
    57     -0.390447  6 H  pz                25     -0.360219  2 C  d -1       
    62      0.275184  7 H  pz                23     -0.222574  2 C  pz         

 Vector   52  Occ=0.000000D+00  E= 1.582004D+00  Symmetry=a'
              MO Center=  1.6D-01, -1.7D-01, -5.4D-15, r^2= 3.3D+00
   Bfn.  Coefficient  Atom+Function         Bfn.  Coefficient  Atom+Function  
  ----- ------------  ---------------      ----- ------------  ---------------
    17      2.536429  2 C  s                  3     -2.271207  1 C  s          
     8     -2.230119  1 C  py                 7      1.532289  1 C  px         
    21      0.929266  2 C  px                44     -0.898423  4 H  s          
    22     -0.827219  2 C  py                 2      0.616084  1 C  s          
    26     -0.510594  2 C  d  0              66      0.484691  8 H  py         

 Vector   53  Occ=0.000000D+00  E= 1.603588D+00  Symmetry=a'
              MO Center= -4.6D-01,  4.8D-01,  6.6D-15, r^2= 2.6D+00
   Bfn.  Coefficient  Atom+Function         Bfn.  Coefficient  Atom+Function  
  ----- ------------  ---------------      ----- ------------  ---------------
    17      1.391504  2 C  s                  3     -1.063036  1 C  s          
    21      0.948711  2 C  px                22      0.623865  2 C  py         
    30     -0.604461  3 C  s                 61     -0.579238  7 H  py         
    31     -0.483641  3 C  s                 16     -0.479748  2 C  s          
     8     -0.430277  1 C  py                40     -0.424224  3 C  d  0       

 Vector   54  Occ=0.000000D+00  E= 1.625351D+00  Symmetry=a"
              MO Center= -9.9D-02,  1.1D-02, -8.6D-15, r^2= 3.4D+00
   Bfn.  Coefficient  Atom+Function         Bfn.  Coefficient  Atom+Function  
  ----- ------------  ---------------      ----- ------------  ---------------
    67     -0.631344  8 H  pz                62      0.617788  7 H  pz         
     9     -0.507390  1 C  pz                27     -0.391159  2 C  d  1       
    41     -0.359577  3 C  d  1              52      0.317744  5 H  pz         
    57      0.317744  6 H  pz                25     -0.308583  2 C  d -1       
    48      0.303679  5 H  s                 53     -0.303679  6 H  s          

 Vector   55  Occ=0.000000D+00  E= 1.661234D+00  Symmetry=a'
              MO Center=  9.6D-02,  1.1D-01,  6.8D-16, r^2= 3.6D+00
   Bfn.  Coefficient  Atom+Function         Bfn.  Coefficient  Atom+Function  
  ----- ------------  ---------------      ----- ------------  ---------------
    22      2.741349  2 C  py                 3      1.776174  1 C  s          
    31     -1.690359  3 C  s                  8      1.578149  1 C  py         
    36      1.148413  3 C  py                35      1.128337  3 C  px         
    17     -0.893459  2 C  s                 16      0.834886  2 C  s          
    24      0.600335  2 C  d -2              64     -0.504704  8 H  s          

 Vector   56  Occ=0.000000D+00  E= 1.666426D+00  Symmetry=a"
              MO Center= -1.2D-01,  1.1D+00, -2.0D-15, r^2= 2.8D+00
   Bfn.  Coefficient  Atom+Function         Bfn.  Coefficient  Atom+Function  
  ----- ------------  ---------------      ----- ------------  ---------------
    72      0.773312  9 H  pz                39     -0.641199  3 C  d -1       
    62      0.486419  7 H  pz                67      0.414228  8 H  pz         
    23     -0.268734  2 C  pz                13      0.243533  1 C  d  1       
    27     -0.237357  2 C  d  1              51      0.193667  5 H  py         
    56     -0.193667  6 H  py                20     -0.192494  2 C  pz         

 Vector   57  Occ=0.000000D+00  E= 1.840332D+00  Symmetry=a'
              MO Center= -9.9D-02,  2.4D-01, -8.3D-15, r^2= 3.2D+00
   Bfn.  Coefficient  Atom+Function         Bfn.  Coefficient  Atom+Function  
  ----- ------------  ---------------      ----- ------------  ---------------
    31      3.543979  3 C  s                 22     -2.649463  2 C  py         
    17     -1.892398  2 C  s                  3     -1.686056  1 C  s          
    36     -1.358180  3 C  py                35     -1.266009  3 C  px         
     7      1.175454  1 C  px                 8     -0.880574  1 C  py         
    40     -0.696151  3 C  d  0              26      0.580486  2 C  d  0       

 Vector   58  Occ=0.000000D+00  E= 1.870540D+00  Symmetry=a"
              MO Center=  2.0D-01,  3.6D-01,  2.8D-15, r^2= 3.5D+00
   Bfn.  Coefficient  Atom+Function         Bfn.  Coefficient  Atom+Function  
  ----- ------------  ---------------      ----- ------------  ---------------
    41      0.668429  3 C  d  1              47      0.596801  4 H  pz         
    72     -0.571959  9 H  pz                67      0.544720  8 H  pz         
    11      0.448599  1 C  d -1              39      0.447539  3 C  d -1       
    27     -0.425328  2 C  d  1              62      0.383896  7 H  pz         
     9     -0.292257  1 C  pz                13      0.255879  1 C  d  1       

 Vector   59  Occ=0.000000D+00  E= 1.898041D+00  Symmetry=a'
              MO Center=  2.1D-01, -1.2D+00,  1.5D-14, r^2= 2.4D+00
   Bfn.  Coefficient  Atom+Function         Bfn.  Coefficient  Atom+Function  
  ----- ------------  ---------------      ----- ------------  ---------------
     3      2.658688  1 C  s                  7     -1.235985  1 C  px         
    22      0.976785  2 C  py                 8      0.921278  1 C  py         
    17     -0.844243  2 C  s                 44      0.754536  4 H  s          
    46      0.739862  4 H  py                 2     -0.625768  1 C  s          
    49     -0.605750  5 H  s                 54     -0.605750  6 H  s          

 Vector   60  Occ=0.000000D+00  E= 1.916712D+00  Symmetry=a'
              MO Center= -2.0D-01, -5.3D-01, -1.1D-14, r^2= 3.4D+00
   Bfn.  Coefficient  Atom+Function         Bfn.  Coefficient  Atom+Function  
  ----- ------------  ---------------      ----- ------------  ---------------
    17      3.937500  2 C  s                 31     -3.440144  3 C  s          
    36      1.628200  3 C  py                21      1.450015  2 C  px         
     3     -1.169119  1 C  s                 22      1.158101  2 C  py         
     7      0.762621  1 C  px                12      0.568109  1 C  d  0       
    35      0.498189  3 C  px                59      0.464321  7 H  s          

 Vector   61  Occ=0.000000D+00  E= 2.000359D+00  Symmetry=a"
              MO Center= -9.3D-02,  1.2D-01,  7.4D-15, r^2= 2.6D+00
   Bfn.  Coefficient  Atom+Function         Bfn.  Coefficient  Atom+Function  
  ----- ------------  ---------------      ----- ------------  ---------------
    25      1.068981  2 C  d -1              39      0.675718  3 C  d -1       
    41     -0.605846  3 C  d  1              13      0.437040  1 C  d  1       
    67     -0.375636  8 H  pz                27     -0.361860  2 C  d  1       
    47      0.288638  4 H  pz                51      0.282305  5 H  py         
    56     -0.282305  6 H  py                11      0.243279  1 C  d -1       

 Vector   62  Occ=0.000000D+00  E= 2.091794D+00  Symmetry=a'
              MO Center= -7.2D-02,  4.1D-01,  6.4D-15, r^2= 3.2D+00
   Bfn.  Coefficient  Atom+Function         Bfn.  Coefficient  Atom+Function  
  ----- ------------  ---------------      ----- ------------  ---------------
    17      2.452172  2 C  s                  3     -1.728822  1 C  s          
    22     -0.922719  2 C  py                32      0.793830  3 C  px         
    65      0.724498  8 H  px                60     -0.641298  7 H  px         
     7      0.633570  1 C  px                26     -0.545282  2 C  d  0       
    59     -0.457279  7 H  s                 58     -0.449246  7 H  s          

 Vector   63  Occ=0.000000D+00  E= 2.154573D+00  Symmetry=a'
              MO Center= -1.2D-01, -1.0D+00,  1.7D-13, r^2= 2.7D+00
   Bfn.  Coefficient  Atom+Function         Bfn.  Coefficient  Atom+Function  
  ----- ------------  ---------------      ----- ------------  ---------------
    17      1.599266  2 C  s                 22      1.369134  2 C  py         
    31     -1.314881  3 C  s                  2      0.799290  1 C  s          
    35      0.764031  3 C  px                50     -0.655064  5 H  px         
    55     -0.655064  6 H  px                 8     -0.651080  1 C  py         
     3      0.628495  1 C  s                 44     -0.579235  4 H  s          

 Vector   64  Occ=0.000000D+00  E= 2.168742D+00  Symmetry=a"
              MO Center=  3.0D-02, -7.2D-01, -3.2D-14, r^2= 2.8D+00
   Bfn.  Coefficient  Atom+Function         Bfn.  Coefficient  Atom+Function  
  ----- ------------  ---------------      ----- ------------  ---------------
    11      1.007330  1 C  d -1              47      0.788073  4 H  pz         
    27      0.694677  2 C  d  1              62     -0.466192  7 H  pz         
    51     -0.392111  5 H  py                56      0.392111  6 H  py         
    39     -0.347663  3 C  d -1              13      0.345415  1 C  d  1       
    41     -0.322862  3 C  d  1              72      0.310038  9 H  pz         

 Vector   65  Occ=0.000000D+00  E= 2.181088D+00  Symmetry=a'
              MO Center= -1.9D-02,  1.1D+00, -4.5D-14, r^2= 3.0D+00
   Bfn.  Coefficient  Atom+Function         Bfn.  Coefficient  Atom+Function  
  ----- ------------  ---------------      ----- ------------  ---------------
    17      2.387581  2 C  s                  3     -1.563028  1 C  s          
    22     -1.553324  2 C  py                16     -1.063245  2 C  s          
    31      0.857489  3 C  s                 36      0.818820  3 C  py         
    70     -0.822661  9 H  px                 8     -0.776447  1 C  py         
    21      0.744061  2 C  px                69     -0.676962  9 H  s          

 Vector   66  Occ=0.000000D+00  E= 2.212903D+00  Symmetry=a'
              MO Center= -1.7D-01, -9.8D-01,  3.6D-13, r^2= 2.8D+00
   Bfn.  Coefficient  Atom+Function         Bfn.  Coefficient  Atom+Function  
  ----- ------------  ---------------      ----- ------------  ---------------
    22      1.665991  2 C  py                14     -0.871181  1 C  d  2       
    31     -0.805411  3 C  s                 52     -0.749816  5 H  pz         
    57      0.749816  6 H  pz                35      0.712990  3 C  px         
    48      0.711086  5 H  s                 53      0.711086  6 H  s          
     7      0.580302  1 C  px                49      0.570332  5 H  s          

 Vector   67  Occ=0.000000D+00  E= 2.269737D+00  Symmetry=a"
              MO Center= -8.3D-02, -1.3D+00, -4.1D-13, r^2= 1.7D+00
   Bfn.  Coefficient  Atom+Function         Bfn.  Coefficient  Atom+Function  
  ----- ------------  ---------------      ----- ------------  ---------------
    13      1.442378  1 C  d  1               9      1.028899  1 C  pz         
    48     -1.013048  5 H  s                 53      1.013048  6 H  s          
     6      0.935599  1 C  pz                52      0.795682  5 H  pz         
    57      0.795682  6 H  pz                50     -0.756658  5 H  px         
    55      0.756658  6 H  px                49     -0.654579  5 H  s          

 Vector   68  Occ=0.000000D+00  E= 2.286970D+00  Symmetry=a'
              MO Center= -9.8D-02,  2.9D-01, -6.6D-14, r^2= 2.9D+00
   Bfn.  Coefficient  Atom+Function         Bfn.  Coefficient  Atom+Function  
  ----- ------------  ---------------      ----- ------------  ---------------
    17      1.452107  2 C  s                  3     -1.052649  1 C  s          
    24      0.934694  2 C  d -2              35     -0.837875  3 C  px         
    65     -0.795597  8 H  px                22     -0.771873  2 C  py         
    14     -0.727783  1 C  d  2              30     -0.730015  3 C  s          
    63      0.709433  8 H  s                 60     -0.705237  7 H  px         

 Vector   69  Occ=0.000000D+00  E= 2.365823D+00  Symmetry=a'
              MO Center= -3.6D-01,  6.9D-01, -1.1D-15, r^2= 3.0D+00
   Bfn.  Coefficient  Atom+Function         Bfn.  Coefficient  Atom+Function  
  ----- ------------  ---------------      ----- ------------  ---------------
    17      2.197879  2 C  s                 31     -1.731373  3 C  s          
     3     -1.444842  1 C  s                 21      1.416773  2 C  px         
    71     -1.051806  9 H  py                 8     -0.998933  1 C  py         
    68      0.999034  9 H  s                 16     -0.835564  2 C  s          
    60      0.830138  7 H  px                58      0.817462  7 H  s          

 Vector   70  Occ=0.000000D+00  E= 2.612711D+00  Symmetry=a'
              MO Center=  8.6D-02,  9.0D-01,  6.9D-16, r^2= 2.5D+00
   Bfn.  Coefficient  Atom+Function         Bfn.  Coefficient  Atom+Function  
  ----- ------------  ---------------      ----- ------------  ---------------
    31     -3.035549  3 C  s                 17      2.833813  2 C  s          
    63      1.280340  8 H  s                 65     -1.004162  8 H  px         
    42     -0.989582  3 C  d  2              24     -0.838758  2 C  d -2       
    58     -0.840924  7 H  s                 22      0.727224  2 C  py         
    38      0.668805  3 C  d -2              40      0.670141  3 C  d  0       

 Vector   71  Occ=0.000000D+00  E= 2.721705D+00  Symmetry=a'
              MO Center=  1.7D-01, -2.9D-01,  9.4D-16, r^2= 3.2D+00
   Bfn.  Coefficient  Atom+Function         Bfn.  Coefficient  Atom+Function  
  ----- ------------  ---------------      ----- ------------  ---------------
     3      1.793653  1 C  s                 43     -1.488222  4 H  s          
    17     -1.205031  2 C  s                 42     -1.033731  3 C  d  2       
    68     -0.959919  9 H  s                 10     -0.871127  1 C  d -2       
    46     -0.870594  4 H  py                45      0.809619  4 H  px         
     4      0.762251  1 C  px                38     -0.755778  3 C  d -2       

 Vector   72  Occ=0.000000D+00  E= 3.019333D+00  Symmetry=a'
              MO Center=  2.1D-01, -2.6D-01,  4.4D-15, r^2= 2.9D+00
   Bfn.  Coefficient  Atom+Function         Bfn.  Coefficient  Atom+Function  
  ----- ------------  ---------------      ----- ------------  ---------------
     3      2.197534  1 C  s                 43     -1.883726  4 H  s          
    28      1.607735  2 C  d  2              10     -1.545616  1 C  d -2       
    42      1.129132  3 C  d  2              46     -0.953773  4 H  py         
    58     -0.952026  7 H  s                 38      0.892490  3 C  d -2       
    12     -0.876834  1 C  d  0              68      0.836064  9 H  s          


 center of mass
 --------------
 x =   0.02484129 y =   0.04913807 z =   0.00000000

 moments of inertia (a.u.)
 ------------------
         197.890297554933          -0.000000000000           0.000000000000
          -0.000000000000          38.053346875864           0.000000000000
           0.000000000000           0.000000000000         224.503570075709

     Multipole analysis of the density
     ---------------------------------

     L   x y z        total         alpha         beta         nuclear
     -   - - -        -----         -----         ----         -------
     0   0 0 0     -0.000000    -12.000000    -12.000000     24.000000

     1   1 0 0     -0.146592     -0.073296     -0.073296     -0.000000
     1   0 1 0     -0.315776     -0.157888     -0.157888      0.000000
     1   0 0 1      0.000000      0.000000      0.000000      0.000000

     2   2 0 0    -14.085943    -20.042803    -20.042803     25.999663
     2   1 1 0     -0.491138     -0.719325     -0.719325      0.947513
     2   1 0 1      0.000000      0.000000      0.000000      0.000000
     2   0 2 0    -14.386211    -68.537526    -68.537526    122.688842
     2   0 1 1      0.000000      0.000000      0.000000      0.000000
     2   0 0 2    -16.199674    -10.937650    -10.937650      5.675625


            General Information
            -------------------
          SCF calculation type: DFT
          Wavefunction type:  closed shell.
          No. of atoms     :     9
          No. of electrons :    24
           Alpha electrons :    12
            Beta electrons :    12
          Charge           :     0
          Spin multiplicity:     1
          Use of symmetry is: on ; symmetry adaption is: on 
          Maximum number of iterations:  50
          This is a Direct SCF calculation.
          AO basis - number of functions:    72
                     number of shells:    36
          Convergence on energy requested:  1.00D-08
          Convergence on density requested:  1.00D-07
          Convergence on gradient requested:  1.00D-06

              XC Information
              --------------
          PerdewBurkeErnzerhof Exchange Functional  1.000          
            Perdew 1991 LDA Correlation Functional  1.000 local    
           PerdewBurkeErnz. Correlation Functional  1.000 non-local

             Grid Information
             ----------------
          Grid used for XC integration:  medium    
          Radial quadrature: Mura-Knowles        
          Angular quadrature: Lebedev. 
          Tag              B.-S. Rad. Rad. Pts. Rad. Cut. Ang. Pts.
          ---              ---------- --------- --------- ---------
          C                   0.70       49          10.0       434
          H                   0.35       45          11.0       434
          Grid pruning is: on 
          Number of quadrature shells:   372
          Spatial weights used:  Erf1

          Convergence Information
          -----------------------
          Convergence aids based upon iterative change in 
          total energy or number of iterations. 
          Levelshifting, if invoked, occurs when the 
          HOMO/LUMO gap drops below (HL_TOL):  1.00D-02
          DIIS, if invoked, will attempt to extrapolate 
          using up to (NFOCK): 10 stored Fock matrices.

                    Damping( 0%)  Levelshifting(0.5)       DIIS
                  --------------- ------------------- ---------------
          dE  on:    start            ASAP                start   
          dE off:    2 iters         50 iters            50 iters 


      Screening Tolerance Information
      -------------------------------
          Density screening/tol_rho:  1.00D-11
          AO Gaussian exp screening on grid/accAOfunc:  18
          CD Gaussian exp screening on grid/accCDfunc:  20
          XC Gaussian exp screening on grid/accXCfunc:  20
          Schwarz screening/accCoul:  1.00D-09

  texas integral default override: limxmem =             50000000
  texas integral default override: limxmem =             50000000


                            NWChem DFT Gradient Module
                            --------------------------



  charge          =   0.00
  wavefunction    = closed shell

  Using symmetry
  texas integral default override: limxmem =             50000000
  texas integral default override: limxmem =             50000000


                         DFT ENERGY GRADIENTS

    atom               coordinates                        gradient
                 x          y          z           x          y          z
   1 C       0.477534  -2.336683   0.000000    0.166472  -0.023669   0.000000
   2 C      -0.767664   0.231468   0.000000   -0.057160  -0.052594   0.000000
   3 C       0.465586   2.452282   0.000000    0.001187  -0.009671   0.000000
   4 H       1.732629  -3.816936   0.000000   -0.064921   0.017666   0.000000
   5 H      -0.958954  -2.668521   1.684581   -0.022838   0.030810   0.017796
   6 H      -0.958954  -2.668521  -1.684581   -0.022838   0.030810  -0.017796
   7 H      -2.854669   0.262945   0.000000   -0.002442   0.007206   0.000000
   8 H       2.547654   2.548206   0.000000    0.001826   0.000511   0.000000
   9 H      -0.560444   4.260426   0.000000    0.000714  -0.001069   0.000000

                 ----------------------------------------
                 |  Time  |  1-e(secs)   |  2-e(secs)   |
                 ----------------------------------------
                 |  CPU   |       0.00   |       0.29   |
                 ----------------------------------------
                 |  WALL  |       0.00   |       0.29   |
                 ----------------------------------------
  no constraints, skipping    0.0000000000000000     

@ Step       Energy      Delta E   Gmax     Grms     Xrms     Xmax   Walltime
@ ---- ---------------- -------- -------- -------- -------- -------- --------
@    0    -117.64525818  0.0D+00  0.05546  0.01811  0.00000  0.00000      5.0
                                                                    



                                Z-matrix (autoz)
                                -------- 

 Units are Angstrom for bonds and degrees for angles

[...]
           6    -0.00871     0.00094     0.00208    -0.15964    -0.12922    -0.00021
           7     0.00135    -0.21180    -0.01205    -0.00091    -0.00079     0.05237
           8    -0.00172     0.03107    -0.15030    -0.00098    -0.00079    -0.05000
           9     0.00085     0.00070     0.00043    -0.20566     0.12337     0.00120
          10    -0.00360    -0.04408     0.01173    -0.00067     0.00131    -0.22527
          11    -0.00316     0.07963    -0.14342    -0.00091    -0.00018    -0.13039
          12    -0.38176    -0.00152     0.00013     0.02677     0.23132     0.00767
          13     0.11348    -0.01292     0.01742    -0.04050    -0.23352    -0.27857
          14    -0.09751    -0.01744    -0.15681     0.06722    -0.03242     0.03077
          15    -0.23494    -0.00024     0.00264    -0.00424    -0.17945     0.00292
          16    -0.12248    -0.01476     0.01462     0.03923     0.23689    -0.27209
          17     0.09690    -0.01645    -0.15742    -0.06930     0.02965     0.02820
          18    -0.23494    -0.00024     0.00264    -0.00424    -0.17945     0.00292
          19    -0.00039    -0.15272    -0.00367    -0.00083    -0.00005    -0.04544
          20     0.00192    -0.09237    -0.16781    -0.00115    -0.00233     0.15435
          21     0.15404     0.00216     0.00375    -0.22108    -0.41270    -0.00442
          22     0.00114    -0.20471    -0.01105    -0.00090    -0.00070     0.04063
          23    -0.00382     0.10210    -0.14023    -0.00088     0.00010    -0.16758
          24    -0.15664    -0.00049    -0.00127    -0.14808     0.40966     0.00535
          25     0.00331    -0.27819    -0.02147    -0.00100    -0.00162     0.16228
          26    -0.00096     0.00530    -0.15396    -0.00101    -0.00111    -0.00733
          27     0.16574     0.00169     0.00070    -0.30220     0.05387    -0.00173

                    7           8           9          10          11          12
 
 P.Frequency      208.96      409.37      569.80      887.19      903.42      917.72
 
           1     0.00000    -0.05339    -0.00000    -0.00000     0.07692    -0.00556
           2     0.00000    -0.09037    -0.00000    -0.00000     0.00955    -0.17048
           3     0.00827     0.00000     0.00483    -0.00590     0.00000    -0.00000
           4    -0.00000     0.13625     0.00000    -0.00000    -0.00102    -0.05147
           5     0.00000    -0.02112    -0.00000     0.00000     0.01009     0.07674
           6    -0.08992     0.00000    -0.11376    -0.04154    -0.00000     0.00000
           7     0.00000    -0.02940    -0.00000     0.00000    -0.05869     0.00426
           8    -0.00000     0.11102     0.00000     0.00000     0.04295     0.11315
           9     0.06291    -0.00000     0.02822     0.14434     0.00000    -0.00000
          10     0.00000    -0.07393    -0.00000    -0.00000     0.03786     0.01831
          11     0.00000    -0.36032    -0.00000     0.00000    -0.46188     0.04791
          12    -0.43014    -0.00000     0.21920     0.01188    -0.00000     0.00000
          13     0.38451    -0.19729    -0.11738    -0.00763    -0.22453     0.19194
          14     0.20683     0.00191     0.24500     0.02732     0.14654    -0.27156
          15     0.30668    -0.00551     0.10651     0.00774    -0.04237     0.02344
          16    -0.38451    -0.19729     0.11738     0.00763    -0.22453     0.19194
          17    -0.20683     0.00191    -0.24500    -0.02732     0.14654    -0.27156
          18     0.30668     0.00551     0.10651     0.00774     0.04237    -0.02344
          19    -0.00000     0.12848     0.00000     0.00000    -0.05620    -0.04816
          20     0.00000    -0.04484    -0.00000     0.00000    -0.35272     0.14160
          21    -0.21795    -0.00000     0.33173     0.01934    -0.00000     0.00000
          22     0.00000    -0.00162    -0.00000     0.00000    -0.10206    -0.01016
          23    -0.00000     0.39860     0.00000     0.00000    -0.42689    -0.10572
          24     0.20920     0.00000    -0.39161    -0.58811    -0.00000     0.00000
          25     0.00000    -0.29489    -0.00000    -0.00000     0.36452     0.28440
          26     0.00000     0.00831     0.00000    -0.00000     0.20316     0.22814
          27     0.04873    -0.00000     0.58875    -0.61245    -0.00000    -0.00000

                   13          14          15          16          17          18
 
 P.Frequency      989.36     1016.08     1146.70     1272.66     1334.24     1376.40
 
           1    -0.00000    -0.00000     0.11170    -0.02885    -0.04315     0.01745
           2    -0.00000    -0.00000    -0.03126     0.01028     0.11292     0.06305
           3     0.04711     0.12382     0.00000    -0.00000     0.00000    -0.00000
           4    -0.00000    -0.00000    -0.12781    -0.07057     0.03199    -0.00530
           5     0.00000     0.00000     0.08433     0.01734     0.01711    -0.09140
           6     0.03645    -0.12849    -0.00000     0.00000    -0.00000    -0.00000
           7     0.00000     0.00000     0.05117     0.09566    -0.00376    -0.03569
           8     0.00000     0.00000    -0.04973     0.01664     0.00453    -0.01235
           9    -0.00291     0.01483     0.00000    -0.00000     0.00000     0.00000
          10     0.00000     0.00000     0.07571    -0.02893    -0.07070     0.00481
          11     0.00000     0.00000    -0.44952     0.01724    -0.43151     0.04831
          12    -0.06654    -0.27369    -0.00000     0.00000    -0.00000     0.00000
          13     0.06225     0.05870    -0.13205     0.04247     0.22446    -0.15692
          14    -0.19303    -0.43711    -0.00362    -0.07699    -0.40988    -0.21882
          15    -0.04687    -0.13345    -0.08125    -0.01637    -0.18641    -0.23640
          16    -0.06225    -0.05870    -0.13205     0.04247     0.22446    -0.15692
          17     0.19303     0.43711    -0.00362    -0.07699    -0.40988    -0.21882
          18    -0.04687    -0.13345     0.08125     0.01637     0.18641     0.23640
          19    -0.00000    -0.00000    -0.09497    -0.19091     0.03076     0.04188
          20     0.00000     0.00000     0.29588    -0.77139    -0.03177     0.20814
          21    -0.69451     0.32590    -0.00000     0.00000    -0.00000     0.00000
          22     0.00000     0.00000     0.07392     0.13362    -0.03723     0.02618
          23    -0.00000    -0.00000     0.26515     0.37043    -0.23945     0.44745
          24    -0.48334     0.03368    -0.00000     0.00000    -0.00000    -0.00000
          25     0.00000     0.00000    -0.20797     0.04600    -0.19401     0.52124
          26     0.00000     0.00000    -0.14412     0.01062    -0.07978     0.21836
          27     0.37795     0.05998    -0.00000    -0.00000     0.00000     0.00000

                   19          20          21          22          23          24
 
 P.Frequency     1398.36     1413.55     1675.78     2955.92     3016.35     3050.95
 
           1     0.00000    -0.04490     0.00331    -0.00192     0.00000    -0.06875
           2    -0.00000     0.02268     0.03092     0.05095     0.00000    -0.01339
           3     0.04972     0.00000    -0.00000    -0.00000     0.08663    -0.00000
           4     0.00000    -0.00893    -0.09394    -0.00129     0.00000     0.04536
           5    -0.00000    -0.02621    -0.18243    -0.00051    -0.00000    -0.00698
           6     0.02190     0.00000    -0.00000     0.00000     0.00067    -0.00000
           7     0.00000    -0.02992     0.10070     0.00014     0.00000     0.00250
           8     0.00000    -0.03437     0.14175     0.00019     0.00000     0.00748
           9    -0.00044    -0.00000     0.00000     0.00000     0.00025    -0.00000
          10     0.00000    -0.06370    -0.00785     0.45176     0.00000     0.68192
          11     0.00000    -0.44870    -0.08161    -0.02208     0.00000    -0.04718
          12    -0.69231    -0.00000     0.00000    -0.00000     0.01937     0.00000
          13    -0.44380     0.38033     0.01086    -0.21517     0.24353     0.07133
          14     0.19609     0.21127     0.06929    -0.28794     0.33274     0.11140
          15    -0.04480     0.28829     0.02895     0.49879    -0.53030    -0.19793
          16     0.44380     0.38033     0.01086    -0.21517    -0.24353     0.07133
          17    -0.19609     0.21127     0.06929    -0.28794    -0.33274     0.11140
          18    -0.04480    -0.28829    -0.02895    -0.49879    -0.53030     0.19793
          19     0.00000     0.01115    -0.06473     0.02147    -0.00000    -0.54653
          20     0.00000     0.10312     0.16760     0.00005     0.00000     0.07999
          21    -0.05281    -0.00000    -0.00000     0.00000    -0.00213    -0.00000
          22     0.00000     0.00511     0.09392    -0.01124    -0.00000    -0.07857
          23     0.00000     0.27825    -0.17178     0.00308     0.00000     0.01418
          24    -0.01330    -0.00000     0.00000    -0.00000     0.00110     0.00000
          25     0.00000     0.28399    -0.16292     0.00489     0.00000     0.04925
          26     0.00000     0.09600     0.06331    -0.00805    -0.00000    -0.11627
          27     0.00048     0.00000    -0.00000     0.00000    -0.00030    -0.00000

                   25          26          27
 
 P.Frequency     3064.52     3073.17     3164.55
 
           1    -0.03721     0.03522     0.00091
           2    -0.00808     0.00991     0.00094
           3     0.00000    -0.00000    -0.00000
           4    -0.02928     0.06020     0.01133
           5     0.00884    -0.00097    -0.00099
           6     0.00000    -0.00000    -0.00000
           7    -0.03546    -0.03648     0.06761
           8    -0.03787    -0.02359    -0.06366
           9     0.00000    -0.00000    -0.00000
          10     0.36672    -0.33575    -0.01111
          11    -0.02747     0.02202     0.00379
          12     0.00000    -0.00000    -0.00000
          13     0.03868    -0.04192    -0.00280
          14     0.06123    -0.06863    -0.00353
          15    -0.10733     0.11306     0.00429
          16     0.03868    -0.04191    -0.00280
          17     0.06123    -0.06863    -0.00353
          18     0.10733    -0.11306    -0.00429
          19     0.37858    -0.66243    -0.10529
          20    -0.05942     0.09695     0.01632
          21    -0.00000     0.00000     0.00000
          22     0.58990     0.48586    -0.55988
          23    -0.06721    -0.05357     0.04649
          24     0.00000    -0.00000    -0.00000
          25    -0.19870    -0.10576    -0.26891
          26     0.47349     0.24623     0.69892
          27    -0.00000     0.00000     0.00000



 ----------------------------------------------------------------------------
 Normal Eigenvalue ||    Projected Derivative Dipole Moments (debye/angs)
  Mode   [cm**-1]  ||      [d/dqX]             [d/dqY]           [d/dqZ]
 ------ ---------- || ------------------ ------------------ -----------------
    1       -0.000 ||      -0.001               0.000            -0.029
    2       -0.000 ||       0.027              -0.009            -0.000
    3       -0.000 ||       0.004              -0.001             0.000
    4        0.000 ||      -0.000               0.000            -0.026
    5        0.000 ||       0.000              -0.000            -0.049
    6        0.000 ||      -0.045               0.015             0.000
    7      208.963 ||       0.000               0.000             0.133
    8      409.373 ||      -0.050              -0.151            -0.000
    9      569.802 ||      -0.000              -0.000             0.497
   10      887.185 ||      -0.000              -0.000             0.863
   11      903.421 ||      -0.183              -0.223            -0.000
   12      917.722 ||       0.212               0.266             0.000
   13      989.355 ||       0.000               0.000            -0.480
   14     1016.075 ||       0.000               0.000             0.141
   15     1146.699 ||      -0.033               0.104            -0.000
   16     1272.659 ||       0.070               0.056             0.000
   17     1334.238 ||       0.094              -0.119            -0.000
   18     1376.403 ||       0.002              -0.148             0.000
   19     1398.364 ||      -0.000              -0.000            -0.400
   20     1413.549 ||       0.496               0.234            -0.000
   21     1675.781 ||      -0.109              -0.564             0.000
   22     2955.925 ||      -0.040               0.747            -0.000
   23     3016.349 ||       0.000               0.000             0.610
   24     3050.949 ||      -0.097              -0.113            -0.000
   25     3064.517 ||      -0.793              -0.148             0.000
   26     3073.167 ||       0.489              -0.186            -0.000
   27     3164.547 ||       0.482              -0.393            -0.000
 ----------------------------------------------------------------------------



  
  
 ----------------------------------------------------------------------------
 Normal Eigenvalue ||           Projected Infra Red Intensities
  Mode   [cm**-1]  || [atomic units] [(debye/angs)**2] [(KM/mol)] [arbitrary]
 ------ ---------- || -------------- ----------------- ---------- -----------
    1       -0.000 ||    0.000035           0.001         0.035       0.048
    2       -0.000 ||    0.000035           0.001         0.035       0.048
    3       -0.000 ||    0.000001           0.000         0.001       0.001
    4        0.000 ||    0.000030           0.001         0.029       0.041
    5        0.000 ||    0.000104           0.002         0.101       0.140
    6        0.000 ||    0.000097           0.002         0.094       0.131
    7      208.963 ||    0.000762           0.018         0.743       1.030
    8      409.373 ||    0.001104           0.025         1.076       1.491
    9      569.802 ||    0.010727           0.247        10.457      14.488
   10      887.185 ||    0.032294           0.745        31.482      43.617
   11      903.421 ||    0.003609           0.083         3.518       4.875
   12      917.722 ||    0.005022           0.116         4.896       6.783
   13      989.355 ||    0.009967           0.230         9.717      13.462
   14     1016.075 ||    0.000865           0.020         0.843       1.169
   15     1146.699 ||    0.000521           0.012         0.508       0.704
   16     1272.659 ||    0.000348           0.008         0.339       0.470
   17     1334.238 ||    0.000999           0.023         0.974       1.349
   18     1376.403 ||    0.000954           0.022         0.930       1.288
   19     1398.364 ||    0.006945           0.160         6.770       9.380
   20     1413.549 ||    0.013013           0.300        12.686      17.576
   21     1675.781 ||    0.014281           0.329        13.922      19.288
   22     2955.925 ||    0.024278           0.560        23.668      32.791
   23     3016.349 ||    0.016147           0.373        15.741      21.808
   24     3050.949 ||    0.000964           0.022         0.940       1.302
   25     3064.517 ||    0.028191           0.650        27.482      38.075
   26     3073.167 ||    0.011875           0.274        11.576      16.038
   27     3164.547 ||    0.016740           0.386        16.319      22.609
 ----------------------------------------------------------------------------



 vib:animation  F

 Task  times  cpu:        0.0s     wall:        0.0s


                                NWChem Input Module
                                -------------------


 Summary of allocated global arrays
-----------------------------------
  No active global arrays


MA_summarize_allocated_blocks: starting scan ...
MA_summarize_allocated_blocks: scan completed: 0 heap blocks, 0 stack blocks
MA usage statistics:

	allocation statistics:
					      heap	     stack
					      ----	     -----
	current number of blocks	         0	         0
	maximum number of blocks	        25	        57
	current total bytes		         0	         0
	maximum total bytes		   1569584	 278096440
	maximum total K-bytes		      1570	    278097
	maximum total M-bytes		         2	       279


                                     CITATION
                                     --------
                Please cite the following reference when publishing
                           results obtained with NWChem:

          E. Apra, E. J. Bylaska, W. A. de Jong, N. Govind, K. Kowalski,
       T. P. Straatsma, M. Valiev, H. J. J. van Dam, Y. Alexeev, J. Anchell,
       V. Anisimov, F. W. Aquino, R. Atta-Fynn, J. Autschbach, N. P. Bauman,
     J. C. Becca, D. E. Bernholdt, K. Bhaskaran-Nair, S. Bogatko, P. Borowski,
         J. Boschen, J. Brabec, A. Bruner, E. Cauet, Y. Chen, G. N. Chuev,
      C. J. Cramer, J. Daily, M. J. O. Deegan, T. H. Dunning Jr., M. Dupuis,
   K. G. Dyall, G. I. Fann, S. A. Fischer, A. Fonari, H. Fruchtl, L. Gagliardi,
      J. Garza, N. Gawande, S. Ghosh, K. Glaesemann, A. W. Gotz, J. Hammond,
       V. Helms, E. D. Hermes, K. Hirao, S. Hirata, M. Jacquelin, L. Jensen,
   B. G. Johnson, H. Jonsson, R. A. Kendall, M. Klemm, R. Kobayashi, V. Konkov,
      S. Krishnamoorthy, M. Krishnan, Z. Lin, R. D. Lins, R. J. Littlefield,
      A. J. Logsdail, K. Lopata, W. Ma, A. V. Marenich, J. Martin del Campo,
   D. Mejia-Rodriguez, J. E. Moore, J. M. Mullin, T. Nakajima, D. R. Nascimento,
    J. A. Nichols, P. J. Nichols, J. Nieplocha, A. Otero-de-la-Roza, B. Palmer,
    A. Panyala, T. Pirojsirikul, B. Peng, R. Peverati, J. Pittner, L. Pollack,
   R. M. Richard, P. Sadayappan, G. C. Schatz, W. A. Shelton, D. W. Silverstein,
   D. M. A. Smith, T. A. Soares, D. Song, M. Swart, H. L. Taylor, G. S. Thomas,
            V. Tipparaju, D. G. Truhlar, K. Tsemekhman, T. Van Voorhis,
      A. Vazquez-Mayagoitia, P. Verma, O. Villa, A. Vishnu, K. D. Vogiatzis,
        D. Wang, J. H. Weare, M. J. Williamson, T. L. Windus, K. Wolinski,
        A. T. Wong, Q. Wu, C. Yang, Q. Yu, M. Zacharias, Z. Zhang, Y. Zhao,
                                and R. J. Harrison
                        "NWChem: Past, present, and future
                         J. Chem. Phys. 152, 184102 (2020)
                               doi:10.1063/5.0004997

                                      AUTHORS
                                      -------
  E. Apra, E. J. Bylaska, N. Govind, K. Kowalski, M. Valiev, D. Mejia-Rodriguez,
       A. Kunitsa, N. P. Bauman, A. Panyala, W. A. de Jong, T. P. Straatsma,
        H. J. J. van Dam, D. Wang, T. L. Windus, J. Hammond, J. Autschbach,
    K. Bhaskaran-Nair, J. Brabec, K. Lopata, S. A. Fischer, S. Krishnamoorthy,
     M. Jacquelin, W. Ma, M. Klemm, O. Villa, Y. Chen, V. Anisimov, F. Aquino,
    S. Hirata, M. T. Hackler, Eric Hermes, L. Jensen, J. E. Moore, J. C. Becca,
      V. Konjkov, T. Risthaus, M. Malagoli, A. Marenich, A. Otero-de-la-Roza,
        J. Mullin, P. Nichols, R. Peverati, J. Pittner, Y. Zhao, P.-D. Fan,
        A. Fonari, M. J. Williamson, R. J. Harrison, J. R. Rehr, M. Dupuis,
     D. Silverstein, D. M. A. Smith, J. Nieplocha, V. Tipparaju, M. Krishnan,
     B. E. Van Kuiken, A. Vazquez-Mayagoitia, M. Swart, Q. Wu, T. Van Voorhis,
     A. A. Auer, M. Nooijen, L. D. Crosby, E. Brown, G. Cisneros, G. I. Fann,
   H. Fruchtl, J. Garza, K. Hirao, R. A. Kendall, J. A. Nichols, K. Tsemekhman,
    K. Wolinski, J. Anchell, D. E. Bernholdt, P. Borowski, T. Clark, D. Clerc,
   H. Dachsel, M. J. O. Deegan, K. Dyall, D. Elwood, E. Glendening, M. Gutowski,
   A. C. Hess, J. Jaffe, B. G. Johnson, J. Ju, R. Kobayashi, R. Kutteh, Z. Lin,
   R. Littlefield, X. Long, B. Meng, T. Nakajima, S. Niu, L. Pollack, M. Rosing,
   K. Glaesemann, G. Sandrone, M. Stave, H. Taylor, G. Thomas, J. H. van Lenthe,
                               A. T. Wong, Z. Zhang.

 Total times  cpu:      580.2s     wall:      582.0s
