 argument  1 = lih2_string_noopt.nw



============================== echo of input deck ==============================
echo
memory noverify
start mcscf_lih2_sto3g_neb_dat
basis
  * library sto-3g
end

charge +1

geometry units angstroms print xyz noautosym
Li       0.0000000000      0.0000000000      3.0
H        0.0000000000      0.0000000000      1.328
H        0.0000000000      0.0000000000     -3.0
end

geometry endgeom units angstroms print xyz noautosym
Li       0.0000000000      0.0000000000      3.0
H        0.0000000000      0.0000000000     -2.254
H        0.0000000000      0.0000000000     -3.0
end

dft
  cgmin
  xc scan
  maxiter 500
end

mcscf
  active       7
  actelec      4
  multiplicity 1
end

string
  nbeads 7
  stepsize 0.10
  freeze1 .true.
  freezeN .true.
  nhist 5
  reset
end

task dft string ignore

string
  optimize no
end

task mcscf string ignore
================================================================================


                                         
                                         


             Northwest Computational Chemistry Package (NWChem) 7.2.1
             --------------------------------------------------------


                    Environmental Molecular Sciences Laboratory
                       Pacific Northwest National Laboratory
                                Richland, WA 99352

                              Copyright (c) 1994-2022
                       Pacific Northwest National Laboratory
                            Battelle Memorial Institute

             NWChem is an open-source computational chemistry package
                        distributed under the terms of the
                      Educational Community License (ECL) 2.0
             A copy of the license is included with this distribution
                              in the LICENSE.TXT file

                                  ACKNOWLEDGMENT
                                  --------------

            This software and its documentation were developed at the
            EMSL at Pacific Northwest National Laboratory, a multiprogram
            national laboratory, operated for the U.S. Department of Energy
            by Battelle under Contract Number DE-AC05-76RL01830. Support
            for this work was provided by the Department of Energy Office
            of Biological and Environmental Research, Office of Basic
            Energy Sciences, and the Office of Advanced Scientific Computing.


           Job information
           ---------------

    hostname        = lima-apptainer-al9
    program         = ../../../bin/LINUX64/nwchem
    date            = Tue Apr 15 19:23:30 2025

    compiled        = Mon_Apr_14_22:08:17_2025
    source          = /Users/hubertusvandam/Documents/nwchem-1-noft.nosync
    nwchem branch   = 7.2.1
    nwchem revision = nwchem_on_git-5531-ge8376a4b81
    ga revision     = 5.8.0
    use scalapack   = F
    input           = lih2_string_noopt.nw
    prefix          = mcscf_lih2_sto3g_neb_dat.
    data base       = ./mcscf_lih2_sto3g_neb_dat.db
    status          = startup
    nproc           =        1
    time left       =     -1s



           Memory information
           ------------------

    heap     =     26214398 doubles =      200.0 Mbytes
    stack    =     26214395 doubles =      200.0 Mbytes
    global   =     52428800 doubles =      400.0 Mbytes (distinct from heap & stack)
    total    =    104857593 doubles =      800.0 Mbytes
    verify   = no 
    hardfail = no 


           Directory information
           ---------------------

  0 permanent = .
  0 scratch   = .




                                NWChem Input Module
                                -------------------




 Summary of "ao basis" -> "" (cartesian)
 ------------------------------------------------------------------------------
       Tag                 Description            Shells   Functions and Types
 ---------------- ------------------------------  ------  ---------------------
 *                           sto-3g                   on all atoms 



 Scaling coordinates for geometry "geometry" by  1.889725989
 (inverse scale =  0.529177249)


          ------
          auto-z
          ------
  autoz: The atoms group into disjoint clusters
 cluster   1:    1    2
 cluster   2:    3
 Clusters   1   2 closest atoms are    2    3 r = 4.33 ... close but too far?
     1 autoz failed with cvr_scaling = 1.2 changing to 1.3
  autoz: The atoms group into disjoint clusters
 cluster   1:    1    2
 cluster   2:    3
 Clusters   1   2 closest atoms are    2    3 r = 4.33 ... close but too far?
     2 autoz failed with cvr_scaling = 1.3 changing to 1.4
  autoz: The atoms group into disjoint clusters
 cluster   1:    1    2
 cluster   2:    3
 Clusters   1   2 closest atoms are    2    3 r = 4.33 ... close but too far?
     3 autoz failed with cvr_scaling = 1.4 changing to 1.5
  autoz: The atoms group into disjoint clusters
 cluster   1:    1    2
 cluster   2:    3
 Clusters   1   2 closest atoms are    2    3 r = 4.33 ... close but too far?
     4 autoz failed with cvr_scaling = 1.5 changing to 1.6
  autoz: The atoms group into disjoint clusters
 cluster   1:    1    2
 cluster   2:    3
 Clusters   1   2 closest atoms are    2    3 r = 4.33 ... close but too far?
     5 autoz failed with cvr_scaling = 1.6 changing to 1.7
  autoz: The atoms group into disjoint clusters
 cluster   1:    1    2
 cluster   2:    3
 Clusters   1   2 closest atoms are    2    3 r = 4.33 ... close but too far?

 AUTOZ failed to generate good internal coordinates.
 Cartesian coordinates will be used in optimizations.



                             Geometry "geometry" -> ""
                             -------------------------

 Output coordinates in angstroms (scale by  1.889725989 to convert to a.u.)

  No.       Tag          Charge          X              Y              Z
 ---- ---------------- ---------- -------------- -------------- --------------
    1 Li                   3.0000     0.00000000     0.00000000     1.53440000
    2 H                    1.0000     0.00000000     0.00000000    -0.13760000
    3 H                    1.0000     0.00000000     0.00000000    -4.46560000

      Atomic Mass 
      ----------- 

      Li                 7.016000
      H                  1.007825


 Effective nuclear repulsion energy (a.u.)       1.3363376452

            Nuclear Dipole moment (a.u.) 
            ----------------------------
        X                 Y               Z
 ---------------- ---------------- ----------------
     0.0000000000     0.0000000000    -0.0000000000


            XYZ format geometry
            -------------------
     3
 geometry
 Li                    0.00000000     0.00000000     1.53440000
 H                     0.00000000     0.00000000    -0.13760000
 H                     0.00000000     0.00000000    -4.46560000

 ==============================================================================
                                internuclear distances
 ------------------------------------------------------------------------------
       center one      |      center two      | atomic units |  angstroms
 ------------------------------------------------------------------------------
    2 H                |   1 Li               |     3.15962  |     1.67200
 ------------------------------------------------------------------------------
                         number of included internuclear distances:          1
 ==============================================================================




 Scaling coordinates for geometry "endgeom" by  1.889725989
 (inverse scale =  0.529177249)


          ------
          auto-z
          ------
  autoz: The atoms group into disjoint clusters
 cluster   1:    1
 cluster   2:    2    3
 Connecting clusters   1   2 via atoms    1    2 r = 5.25
  autoz: regenerating connections with new bonds
  autoz: insufficient variables                     2                    3
     2 autoz failed with cvr_scaling = 1.2 changing to 1.3
  autoz: The atoms group into disjoint clusters
 cluster   1:    1
 cluster   2:    2    3
 Connecting clusters   1   2 via atoms    1    2 r = 5.25
  autoz: regenerating connections with new bonds
  autoz: insufficient variables                     2                    3
     4 autoz failed with cvr_scaling = 1.3 changing to 1.4
  autoz: The atoms group into disjoint clusters
 cluster   1:    1
 cluster   2:    2    3
 Connecting clusters   1   2 via atoms    1    2 r = 5.25
  autoz: regenerating connections with new bonds
  autoz: insufficient variables                     2                    3
     6 autoz failed with cvr_scaling = 1.4 changing to 1.5
  autoz: The atoms group into disjoint clusters
 cluster   1:    1
 cluster   2:    2    3
 Connecting clusters   1   2 via atoms    1    2 r = 5.25
  autoz: regenerating connections with new bonds
  autoz: insufficient variables                     2                    3
     8 autoz failed with cvr_scaling = 1.5 changing to 1.6
  autoz: The atoms group into disjoint clusters
 cluster   1:    1
 cluster   2:    2    3
 Connecting clusters   1   2 via atoms    1    2 r = 5.25
  autoz: regenerating connections with new bonds
  autoz: insufficient variables                     2                    3
    10 autoz failed with cvr_scaling = 1.6 changing to 1.7
  autoz: The atoms group into disjoint clusters
 cluster   1:    1
 cluster   2:    2    3
 Connecting clusters   1   2 via atoms    1    2 r = 5.25
  autoz: regenerating connections with new bonds
  autoz: insufficient variables                     2                    3

 AUTOZ failed to generate good internal coordinates.
 Cartesian coordinates will be used in optimizations.



                         Geometry "endgeom" -> "        "
                         --------------------------------

 Output coordinates in angstroms (scale by  1.889725989 to convert to a.u.)

  No.       Tag          Charge          X              Y              Z
 ---- ---------------- ---------- -------------- -------------- --------------
    1 Li                   3.0000     0.00000000     0.00000000     2.25080000
    2 H                    1.0000     0.00000000     0.00000000    -3.00320000
    3 H                    1.0000     0.00000000     0.00000000    -3.74920000

      Atomic Mass 
      ----------- 

      Li                 7.016000
      H                  1.007825


 Effective nuclear repulsion energy (a.u.)       1.2760982899

            Nuclear Dipole moment (a.u.) 
            ----------------------------
        X                 Y               Z
 ---------------- ---------------- ----------------
     0.0000000000     0.0000000000     0.0000000000


            XYZ format geometry
            -------------------
     3
 endgeom
 Li                    0.00000000     0.00000000     2.25080000
 H                     0.00000000     0.00000000    -3.00320000
 H                     0.00000000     0.00000000    -3.74920000

@zts
@zts String method.
@zts Temperature          =   0.00000
@zts Covergence Tolerance =   0.00010
@zts Step Size            =   0.10000
@zts Maximum Time Steps   =        25
@zts Number of replicas   =         7
@zts Number of histories  =         5
@zts algorithm            = 3 (QN Fixed Point - Damped Verlet)
@zts String Interpolator  =         1
@zts First Replica        = frozen
@zts Last Replica         = frozen
@zts
@zts  Step       xrms       xmax        E start       E middle          E end          E max      E average Walltime
 string: running bead                     1

                                 NWChem DFT Module
                                 -----------------


                      Basis "ao basis" -> "ao basis" (cartesian)
                      -----
  Li (Lithium)
  ------------
            Exponent  Coefficients 
       -------------- ---------------------------------------------------------
  1 S  1.61195750E+01  0.154329
  1 S  2.93620070E+00  0.535328
  1 S  7.94650500E-01  0.444635

  2 S  6.36289700E-01 -0.099967
  2 S  1.47860100E-01  0.399513
  2 S  4.80887000E-02  0.700115

  3 P  6.36289700E-01  0.155916
  3 P  1.47860100E-01  0.607684
  3 P  4.80887000E-02  0.391957

  H (Hydrogen)
  ------------
            Exponent  Coefficients 
       -------------- ---------------------------------------------------------
  1 S  3.42525091E+00  0.154329
  1 S  6.23913730E-01  0.535328
  1 S  1.68855400E-01  0.444635



 Summary of "ao basis" -> "ao basis" (cartesian)
 ------------------------------------------------------------------------------
       Tag                 Description            Shells   Functions and Types
 ---------------- ------------------------------  ------  ---------------------
 Li                          sto-3g                  3        5   2s1p
 H                           sto-3g                  1        1   1s




 Summary of "ao basis" -> "ao basis" (cartesian)
 ------------------------------------------------------------------------------
       Tag                 Description            Shells   Functions and Types
 ---------------- ------------------------------  ------  ---------------------
 Li                          sto-3g                  3        5   2s1p
 H                           sto-3g                  1        1   1s


  Caching 1-el integrals 

            General Information
            -------------------
          SCF calculation type: DFT
          Wavefunction type:  closed shell.
          No. of atoms     :     3
          No. of electrons :     4
           Alpha electrons :     2
            Beta electrons :     2
          Charge           :     1
          Spin multiplicity:     1
          Use of symmetry is: off; symmetry adaption is: off
          Maximum number of iterations: 500
          AO basis - number of functions:     7
                     number of shells:     5
          Convergence on energy requested:  1.00D-06
          Convergence on density requested:  1.00D-05
          Convergence on gradient requested:  5.00D-04

              XC Information
              --------------
                         SCAN Method XC Functional
                  SCAN metaGGA Exchange Functional  1.000          
                        SCAN Correlation Potential  1.000          

             Grid Information
             ----------------
          Grid used for XC integration:  medium    
          Radial quadrature: Mura-Knowles        
          Angular quadrature: Lebedev. 
          Tag              B.-S. Rad. Rad. Pts. Rad. Cut. Ang. Pts.
          ---              ---------- --------- --------- ---------
          Li                  1.45       49          12.0       434
          H                   0.35       45          16.0       434
          Grid pruning is: on 
          Number of quadrature shells:   139
          Spatial weights used:  Erf1

          Convergence Information
          -----------------------
          Convergence aids based upon iterative change in 
          total energy or number of iterations. 
          Levelshifting, if invoked, occurs when the 
          HOMO/LUMO gap drops below (HL_TOL):  1.00D-02
          DIIS, if invoked, will attempt to extrapolate 
          using up to (NFOCK): 10 stored Fock matrices.

                    Damping( 0%)  Levelshifting(0.5)       DIIS
                  --------------- ------------------- ---------------
          dE  on:    start            ASAP                start   
          dE off:    2 iters        500 iters           500 iters 


      Screening Tolerance Information
      -------------------------------
          Density screening/tol_rho:  1.00D-10
          AO Gaussian exp screening on grid/accAOfunc:  14
          CD Gaussian exp screening on grid/accCDfunc:  20
          XC Gaussian exp screening on grid/accXCfunc:  20
          Schwarz screening/accCoul:  1.00D-08


      Superposition of Atomic Density Guess
      -------------------------------------

 Sum of atomic energies:          -8.24868968

 Renormalizing density from       5.00 to      4

      Non-variational initial energy
      ------------------------------

 Total energy =      -6.664421
 1-e energy   =     -10.650078
 2-e energy   =       2.649319
 HOMO         =      -0.505817
 LUMO         =      -0.234120



 ----------------------------------------------
         Quadratically convergent ROKS

 Convergence threshold     :          5.000E-04
 Maximum no. of iterations :          500
 Final Fock-matrix accuracy:          1.000E-08
 ----------------------------------------------

HVD: EAF_MAX_FILES: 1024
HVD: eaf_open: 0: ./mcscf_lih2_sto3g_neb_dat.junk.0

 #quartets = 1.050D+02 #integrals = 1.670D+02 #direct =  0.0% #cached =100.0%


 Integral file          = ./mcscf_lih2_sto3g_neb_dat.aoints.0
 Record size in doubles =    65536    No. of integs per rec  =    43688
 Max. records in memory =        3    Max. records in file   = ********
 No. of bits per label  =        8    No. of bits per value  =       64

HVD: EAF_MAX_FILES: 1024
HVD: eaf_open: 0: ./mcscf_lih2_sto3g_neb_dat.junk.0

 Grid_pts file          = ./mcscf_lih2_sto3g_neb_dat.gridpts.0
 Record size in doubles =  12289        No. of grid_pts per rec  =   3070
 Max. records in memory =     23        Max. recs in file   = *********

HVD: EAF_MAX_FILES: 1024
HVD: eaf_open: 0: ./mcscf_lih2_sto3g_neb_dat.gridpts.0

              iter       energy          gnorm     gmax       time
             ----- ------------------- --------- --------- --------
                 1       -7.9503546422  2.48D-01  1.74D-01      0.2
  Setting level-shift to   2.45 to force positive preconditioner
                 2       -7.9575315387  3.57D-02  2.73D-02      0.2
  Setting level-shift to   2.71 to force positive preconditioner
                 3       -7.9732712931  6.13D-01  4.37D-01      0.4
  Setting level-shift to   2.91 to force positive preconditioner
                 4       -8.0651204322  2.20D-01  1.26D-01      0.4
                 5       -8.0654081293  2.24D-01  1.32D-01      0.5
                 6       -8.0676736337  2.21D-01  1.28D-01      0.6
                 7       -8.0712272448  1.56D-01  1.01D-01      0.8
                 8       -8.0713200817  1.52D-01  9.95D-02      0.9
  Setting level-shift to   2.01 to force positive preconditioner
                 9       -8.0754471962  7.02D-02  5.56D-02      0.9
                10       -8.0762328658  7.01D-03  6.09D-03      1.0
                11       -8.0762516772  1.57D-03  1.12D-03      1.0
                12       -8.0762523737  3.94D-04  3.22D-04      1.0


         Total DFT energy =       -8.076252373736
      One electron energy =      -12.330828121839
           Coulomb energy =        5.159881806213
    Exchange-Corr. energy =       -2.241643703304
 Nuclear repulsion energy =        1.336337645195

 Numeric. integr. density =        3.999999270914

     Total iterative time =      0.9s



                       DFT Final Molecular Orbital Analysis
                       ------------------------------------

 Vector    1  Occ=2.000000D+00  E=-2.088034D+00
              MO Center=  7.0D-11, -1.2D-11,  1.5D+00, r^2= 1.3D-01
   Bfn.  Coefficient  Atom+Function         Bfn.  Coefficient  Atom+Function  
  ----- ------------  ---------------      ----- ------------  ---------------
     1      0.989259  1 Li s          

 Vector    2  Occ=2.000000D+00  E=-4.121231D-01
              MO Center=  1.7D-10,  4.4D-10, -1.3D+00, r^2= 5.3D+00
   Bfn.  Coefficient  Atom+Function         Bfn.  Coefficient  Atom+Function  
  ----- ------------  ---------------      ----- ------------  ---------------
     6      0.566716  2 H  s                  7      0.548015  3 H  s          
     2      0.267006  1 Li s                  5     -0.245808  1 Li pz         

 Vector    3  Occ=0.000000D+00  E=-4.097747D-01
              MO Center=  9.9D-11,  2.2D-10, -3.1D+00, r^2= 5.1D+00
   Bfn.  Coefficient  Atom+Function         Bfn.  Coefficient  Atom+Function  
  ----- ------------  ---------------      ----- ------------  ---------------
     7      0.836448  3 H  s                  6     -0.376937  2 H  s          
     2     -0.174502  1 Li s                  5      0.158438  1 Li pz         

 Vector    4  Occ=0.000000D+00  E=-1.313279D-01
              MO Center=  3.9D-07,  4.0D-07,  2.2D+00, r^2= 2.9D+00
   Bfn.  Coefficient  Atom+Function         Bfn.  Coefficient  Atom+Function  
  ----- ------------  ---------------      ----- ------------  ---------------
     2      0.935518  1 Li s                  5      0.417732  1 Li pz         
     6     -0.265212  2 H  s                  1     -0.242172  1 Li s          

 Vector    5  Occ=0.000000D+00  E=-9.800701D-02
              MO Center= -4.1D-07, -4.1D-07,  1.5D+00, r^2= 3.3D+00
   Bfn.  Coefficient  Atom+Function         Bfn.  Coefficient  Atom+Function  
  ----- ------------  ---------------      ----- ------------  ---------------
     3      0.707720  1 Li px                 4      0.706493  1 Li py         

 Vector    6  Occ=0.000000D+00  E=-9.800700D-02
              MO Center=  3.6D-09, -3.6D-09,  1.5D+00, r^2= 3.3D+00
   Bfn.  Coefficient  Atom+Function         Bfn.  Coefficient  Atom+Function  
  ----- ------------  ---------------      ----- ------------  ---------------
     3      0.706493  1 Li px                 4     -0.707720  1 Li py         

 Vector    7  Occ=0.000000D+00  E= 1.121169D-01
              MO Center=  9.9D-09,  1.0D-08,  8.3D-01, r^2= 3.0D+00
   Bfn.  Coefficient  Atom+Function         Bfn.  Coefficient  Atom+Function  
  ----- ------------  ---------------      ----- ------------  ---------------
     5      1.072046  1 Li pz                 6      1.054507  2 H  s          
     2     -0.573012  1 Li s          


 Parallel integral file used       1 records with       0 large values


            General Information
            -------------------
          SCF calculation type: DFT
          Wavefunction type:  closed shell.
          No. of atoms     :     3
          No. of electrons :     4
           Alpha electrons :     2
            Beta electrons :     2
          Charge           :     1
          Spin multiplicity:     1
          Use of symmetry is: off; symmetry adaption is: off
          Maximum number of iterations: 500
          AO basis - number of functions:     7
                     number of shells:     5
          Convergence on energy requested:  1.00D-06
          Convergence on density requested:  1.00D-05
          Convergence on gradient requested:  5.00D-04

              XC Information
              --------------
                         SCAN Method XC Functional
                  SCAN metaGGA Exchange Functional  1.000          
                        SCAN Correlation Potential  1.000          

             Grid Information
             ----------------
          Grid used for XC integration:  medium    
          Radial quadrature: Mura-Knowles        
          Angular quadrature: Lebedev. 
          Tag              B.-S. Rad. Rad. Pts. Rad. Cut. Ang. Pts.
          ---              ---------- --------- --------- ---------
          Li                  1.45       49          12.0       434
          H                   0.35       45          16.0       434
          Grid pruning is: on 
          Number of quadrature shells:   139
          Spatial weights used:  Erf1

          Convergence Information
          -----------------------
          Convergence aids based upon iterative change in 
          total energy or number of iterations. 
          Levelshifting, if invoked, occurs when the 
          HOMO/LUMO gap drops below (HL_TOL):  1.00D-02
          DIIS, if invoked, will attempt to extrapolate 
          using up to (NFOCK): 10 stored Fock matrices.

                    Damping( 0%)  Levelshifting(0.5)       DIIS
                  --------------- ------------------- ---------------
          dE  on:    start            ASAP                start   
          dE off:    2 iters        500 iters           500 iters 


      Screening Tolerance Information
      -------------------------------
          Density screening/tol_rho:  1.00D-10
          AO Gaussian exp screening on grid/accAOfunc:  14
          CD Gaussian exp screening on grid/accCDfunc:  20
          XC Gaussian exp screening on grid/accXCfunc:  20
          Schwarz screening/accCoul:  1.00D-08



                            NWChem DFT Gradient Module
                            --------------------------



  charge          =   1.00
  wavefunction    = closed shell

HVD: EAF_MAX_FILES: 1024
HVD: eaf_open: 0: ./mcscf_lih2_sto3g_neb_dat.gridpts.0


                         DFT ENERGY GRADIENTS

    atom               coordinates                        gradient
                 x          y          z           x          y          z
   1 Li      0.000000   0.000000   2.899596    0.000000  -0.000000  -0.002295
   2 H       0.000000   0.000000  -0.260026   -0.000000   0.000000   0.002406
   3 H       0.000000   0.000000  -8.438760   -0.000000  -0.000000  -0.000110

                 ----------------------------------------
                 |  Time  |  1-e(secs)   |  2-e(secs)   |
                 ----------------------------------------
                 |  CPU   |       0.00   |       0.00   |
                 ----------------------------------------
                 |  WALL  |       0.00   |       0.00   |
                 ----------------------------------------
 string: finished bead   1 energy=         -8.076252
 string: running bead                     2

                                 NWChem DFT Module
                                 -----------------




 Summary of "ao basis" -> "ao basis" (cartesian)
 ------------------------------------------------------------------------------
       Tag                 Description            Shells   Functions and Types
 ---------------- ------------------------------  ------  ---------------------
 Li                          sto-3g                  3        5   2s1p
 H                           sto-3g                  1        1   1s


  Caching 1-el integrals 

            General Information
            -------------------
          SCF calculation type: DFT
          Wavefunction type:  closed shell.
          No. of atoms     :     3
          No. of electrons :     4
           Alpha electrons :     2
            Beta electrons :     2
          Charge           :     1
          Spin multiplicity:     1
          Use of symmetry is: off; symmetry adaption is: off
          Maximum number of iterations: 500
          AO basis - number of functions:     7
                     number of shells:     5
          Convergence on energy requested:  1.00D-06
          Convergence on density requested:  1.00D-05
          Convergence on gradient requested:  5.00D-04

              XC Information
              --------------
                         SCAN Method XC Functional
                  SCAN metaGGA Exchange Functional  1.000          
                        SCAN Correlation Potential  1.000          

             Grid Information
             ----------------
          Grid used for XC integration:  medium    
          Radial quadrature: Mura-Knowles        
          Angular quadrature: Lebedev. 
          Tag              B.-S. Rad. Rad. Pts. Rad. Cut. Ang. Pts.
          ---              ---------- --------- --------- ---------
          Li                  1.45       49          12.0       434
          H                   0.35       45          16.0       434
          Grid pruning is: on 
          Number of quadrature shells:   139
          Spatial weights used:  Erf1

          Convergence Information
          -----------------------
          Convergence aids based upon iterative change in 
          total energy or number of iterations. 
          Levelshifting, if invoked, occurs when the 
          HOMO/LUMO gap drops below (HL_TOL):  1.00D-02
          DIIS, if invoked, will attempt to extrapolate 
          using up to (NFOCK): 10 stored Fock matrices.

                    Damping( 0%)  Levelshifting(0.5)       DIIS
                  --------------- ------------------- ---------------
          dE  on:    start            ASAP                start   
          dE off:    2 iters        500 iters           500 iters 


      Screening Tolerance Information
      -------------------------------
          Density screening/tol_rho:  1.00D-10
          AO Gaussian exp screening on grid/accAOfunc:  14
          CD Gaussian exp screening on grid/accCDfunc:  20
          XC Gaussian exp screening on grid/accXCfunc:  20
          Schwarz screening/accCoul:  1.00D-08


 Loading old vectors from job with title :





 ----------------------------------------------
         Quadratically convergent ROKS

 Convergence threshold     :          5.000E-04
 Maximum no. of iterations :          500
 Final Fock-matrix accuracy:          1.000E-08
 ----------------------------------------------

HVD: EAF_MAX_FILES: 1024
HVD: eaf_open: 0: ./mcscf_lih2_sto3g_neb_dat.junk.0

 #quartets = 1.050D+02 #integrals = 1.670D+02 #direct =  0.0% #cached =100.0%


 Integral file          = ./mcscf_lih2_sto3g_neb_dat.aoints.0
 Record size in doubles =    65536    No. of integs per rec  =    43688
 Max. records in memory =        3    Max. records in file   = ********
 No. of bits per label  =        8    No. of bits per value  =       64

HVD: EAF_MAX_FILES: 1024
HVD: eaf_open: 0: ./mcscf_lih2_sto3g_neb_dat.junk.0

 Grid_pts file          = ./mcscf_lih2_sto3g_neb_dat.gridpts.0
 Record size in doubles =  12289        No. of grid_pts per rec  =   3070
 Max. records in memory =     23        Max. recs in file   = *********

HVD: EAF_MAX_FILES: 1024
HVD: eaf_open: 0: ./mcscf_lih2_sto3g_neb_dat.gridpts.0

              iter       energy          gnorm     gmax       time
             ----- ------------------- --------- --------- --------
                 1       -8.0581852207  5.65D-02  4.26D-02      1.1
  Setting level-shift to   2.00 to force positive preconditioner
                 2       -8.0588651479  2.43D-02  1.69D-02      1.1
                 3       -8.0589646929  5.91D-03  4.13D-03      1.2
                 4       -8.0589703355  1.50D-03  1.04D-03      1.2
                 5       -8.0589706998  3.85D-04  2.61D-04      1.2


         Total DFT energy =       -8.058970699751
      One electron energy =      -11.855735599194
           Coulomb energy =        4.925481069237
    Exchange-Corr. energy =       -2.234798759019
 Nuclear repulsion energy =        1.106082589224

 Numeric. integr. density =        4.000000614507

     Total iterative time =      0.1s



                       DFT Final Molecular Orbital Analysis
                       ------------------------------------

 Vector    1  Occ=2.000000D+00  E=-2.114631D+00
              MO Center=  6.9D-14,  1.8D-13,  1.5D+00, r^2= 1.3D-01
   Bfn.  Coefficient  Atom+Function         Bfn.  Coefficient  Atom+Function  
  ----- ------------  ---------------      ----- ------------  ---------------
     1      0.989592  1 Li s          

 Vector    2  Occ=2.000000D+00  E=-3.775515D-01
              MO Center=  9.5D-13,  1.7D-12, -1.8D+00, r^2= 4.8D+00
   Bfn.  Coefficient  Atom+Function         Bfn.  Coefficient  Atom+Function  
  ----- ------------  ---------------      ----- ------------  ---------------
     6      0.602983  2 H  s                  7      0.581919  3 H  s          
     2      0.267467  1 Li s                  5     -0.228068  1 Li pz         

 Vector    3  Occ=0.000000D+00  E=-3.727039D-01
              MO Center=  2.4D-13,  2.8D-13, -3.1D+00, r^2= 4.6D+00
   Bfn.  Coefficient  Atom+Function         Bfn.  Coefficient  Atom+Function  
  ----- ------------  ---------------      ----- ------------  ---------------
     7      0.813254  3 H  s                  6     -0.436154  2 H  s          
     2     -0.194931  1 Li s                  5      0.163115  1 Li pz         

 Vector    4  Occ=0.000000D+00  E=-1.549951D-01
              MO Center= -5.5D-10, -5.4D-10,  1.8D+00, r^2= 3.5D+00
   Bfn.  Coefficient  Atom+Function         Bfn.  Coefficient  Atom+Function  
  ----- ------------  ---------------      ----- ------------  ---------------
     2      0.986302  1 Li s                  6     -0.390347  2 H  s          
     1     -0.266515  1 Li s                  5      0.225526  1 Li pz         

 Vector    5  Occ=0.000000D+00  E=-1.062179D-01
              MO Center=  4.7D-12, -4.7D-12,  1.5D+00, r^2= 3.3D+00
   Bfn.  Coefficient  Atom+Function         Bfn.  Coefficient  Atom+Function  
  ----- ------------  ---------------      ----- ------------  ---------------
     3      0.707106  1 Li px                 4     -0.707107  1 Li py         

 Vector    6  Occ=0.000000D+00  E=-1.062179D-01
              MO Center=  5.9D-10,  5.9D-10,  1.5D+00, r^2= 3.3D+00
   Bfn.  Coefficient  Atom+Function         Bfn.  Coefficient  Atom+Function  
  ----- ------------  ---------------      ----- ------------  ---------------
     3      0.707107  1 Li px                 4      0.707106  1 Li py         

 Vector    7  Occ=0.000000D+00  E=-2.448708D-02
              MO Center= -4.5D-11, -4.5D-11,  1.0D+00, r^2= 3.4D+00
   Bfn.  Coefficient  Atom+Function         Bfn.  Coefficient  Atom+Function  
  ----- ------------  ---------------      ----- ------------  ---------------
     5      1.011655  1 Li pz                 6      0.721344  2 H  s          
     2     -0.235985  1 Li s          


 Parallel integral file used       1 records with       0 large values


            General Information
            -------------------
          SCF calculation type: DFT
          Wavefunction type:  closed shell.
          No. of atoms     :     3
          No. of electrons :     4
           Alpha electrons :     2
            Beta electrons :     2
          Charge           :     1
          Spin multiplicity:     1
          Use of symmetry is: off; symmetry adaption is: off
          Maximum number of iterations: 500
          AO basis - number of functions:     7
                     number of shells:     5
          Convergence on energy requested:  1.00D-06
          Convergence on density requested:  1.00D-05
          Convergence on gradient requested:  5.00D-04

              XC Information
              --------------
                         SCAN Method XC Functional
                  SCAN metaGGA Exchange Functional  1.000          
                        SCAN Correlation Potential  1.000          

             Grid Information
             ----------------
          Grid used for XC integration:  medium    
          Radial quadrature: Mura-Knowles        
          Angular quadrature: Lebedev. 
          Tag              B.-S. Rad. Rad. Pts. Rad. Cut. Ang. Pts.
          ---              ---------- --------- --------- ---------
          Li                  1.45       49          12.0       434
          H                   0.35       45          16.0       434
          Grid pruning is: on 
          Number of quadrature shells:   139
          Spatial weights used:  Erf1

          Convergence Information
          -----------------------
          Convergence aids based upon iterative change in 
          total energy or number of iterations. 
          Levelshifting, if invoked, occurs when the 
          HOMO/LUMO gap drops below (HL_TOL):  1.00D-02
          DIIS, if invoked, will attempt to extrapolate 
          using up to (NFOCK): 10 stored Fock matrices.

                    Damping( 0%)  Levelshifting(0.5)       DIIS
                  --------------- ------------------- ---------------
          dE  on:    start            ASAP                start   
          dE off:    2 iters        500 iters           500 iters 


      Screening Tolerance Information
      -------------------------------
          Density screening/tol_rho:  1.00D-10
          AO Gaussian exp screening on grid/accAOfunc:  14
          CD Gaussian exp screening on grid/accCDfunc:  20
          XC Gaussian exp screening on grid/accXCfunc:  20
          Schwarz screening/accCoul:  1.00D-08



                            NWChem DFT Gradient Module
                            --------------------------



  charge          =   1.00
  wavefunction    = closed shell

HVD: EAF_MAX_FILES: 1024
HVD: eaf_open: 0: ./mcscf_lih2_sto3g_neb_dat.gridpts.0


                         DFT ENERGY GRADIENTS

    atom               coordinates                        gradient
                 x          y          z           x          y          z
   1 Li      0.000000   0.000000   2.899643    0.000000   0.000000   0.025154
   2 H       0.000000   0.000000  -1.388145   -0.000000  -0.000000  -0.022746
   3 H       0.000000   0.000000  -8.438713    0.000000   0.000000  -0.002408

                 ----------------------------------------
                 |  Time  |  1-e(secs)   |  2-e(secs)   |
                 ----------------------------------------
                 |  CPU   |       0.00   |       0.00   |
                 ----------------------------------------
                 |  WALL  |       0.00   |       0.00   |
                 ----------------------------------------
 string: finished bead   2 energy=         -8.058971
 string: running bead                     3

                                 NWChem DFT Module
                                 -----------------




 Summary of "ao basis" -> "ao basis" (cartesian)
 ------------------------------------------------------------------------------
       Tag                 Description            Shells   Functions and Types
 ---------------- ------------------------------  ------  ---------------------
 Li                          sto-3g                  3        5   2s1p
 H                           sto-3g                  1        1   1s


  Caching 1-el integrals 

            General Information
            -------------------
          SCF calculation type: DFT
          Wavefunction type:  closed shell.
          No. of atoms     :     3
          No. of electrons :     4
           Alpha electrons :     2
            Beta electrons :     2
          Charge           :     1
          Spin multiplicity:     1
          Use of symmetry is: off; symmetry adaption is: off
          Maximum number of iterations: 500
          AO basis - number of functions:     7
                     number of shells:     5
          Convergence on energy requested:  1.00D-06
          Convergence on density requested:  1.00D-05
          Convergence on gradient requested:  5.00D-04

              XC Information
              --------------
                         SCAN Method XC Functional
                  SCAN metaGGA Exchange Functional  1.000          
                        SCAN Correlation Potential  1.000          

             Grid Information
             ----------------
          Grid used for XC integration:  medium    
          Radial quadrature: Mura-Knowles        
          Angular quadrature: Lebedev. 
          Tag              B.-S. Rad. Rad. Pts. Rad. Cut. Ang. Pts.
          ---              ---------- --------- --------- ---------
          Li                  1.45       49          12.0       434
          H                   0.35       45          16.0       434
          Grid pruning is: on 
          Number of quadrature shells:   139
          Spatial weights used:  Erf1

          Convergence Information
          -----------------------
          Convergence aids based upon iterative change in 
          total energy or number of iterations. 
          Levelshifting, if invoked, occurs when the 
          HOMO/LUMO gap drops below (HL_TOL):  1.00D-02
          DIIS, if invoked, will attempt to extrapolate 
          using up to (NFOCK): 10 stored Fock matrices.

                    Damping( 0%)  Levelshifting(0.5)       DIIS
                  --------------- ------------------- ---------------
          dE  on:    start            ASAP                start   
          dE off:    2 iters        500 iters           500 iters 


      Screening Tolerance Information
      -------------------------------
          Density screening/tol_rho:  1.00D-10
          AO Gaussian exp screening on grid/accAOfunc:  14
          CD Gaussian exp screening on grid/accCDfunc:  20
          XC Gaussian exp screening on grid/accXCfunc:  20
          Schwarz screening/accCoul:  1.00D-08


 Loading old vectors from job with title :





 ----------------------------------------------
         Quadratically convergent ROKS

 Convergence threshold     :          5.000E-04
 Maximum no. of iterations :          500
 Final Fock-matrix accuracy:          1.000E-08
 ----------------------------------------------

HVD: EAF_MAX_FILES: 1024
HVD: eaf_open: 0: ./mcscf_lih2_sto3g_neb_dat.junk.0

 #quartets = 1.050D+02 #integrals = 1.670D+02 #direct =  0.0% #cached =100.0%


 Integral file          = ./mcscf_lih2_sto3g_neb_dat.aoints.0
 Record size in doubles =    65536    No. of integs per rec  =    43688
 Max. records in memory =        3    Max. records in file   = ********
 No. of bits per label  =        8    No. of bits per value  =       64

HVD: EAF_MAX_FILES: 1024
HVD: eaf_open: 0: ./mcscf_lih2_sto3g_neb_dat.junk.0

 Grid_pts file          = ./mcscf_lih2_sto3g_neb_dat.gridpts.0
 Record size in doubles =  12289        No. of grid_pts per rec  =   3070
 Max. records in memory =     23        Max. recs in file   = *********

HVD: EAF_MAX_FILES: 1024
HVD: eaf_open: 0: ./mcscf_lih2_sto3g_neb_dat.gridpts.0

              iter       energy          gnorm     gmax       time
             ----- ------------------- --------- --------- --------
                 1       -8.0362206117  6.10D-02  5.37D-02      1.3
                 2       -8.0374240221  1.82D-02  1.27D-02      1.3
                 3       -8.0375402455  5.36D-03  3.80D-03      1.3
                 4       -8.0375507921  1.60D-03  1.20D-03      1.4
                 5       -8.0375517571  4.81D-04  3.76D-04      1.4


         Total DFT energy =       -8.037551757129
      One electron energy =      -11.576243882171
           Coulomb energy =        4.799829388845
    Exchange-Corr. energy =       -2.248495281409
 Nuclear repulsion energy =        0.987358017606

 Numeric. integr. density =        3.999999757968

     Total iterative time =      0.1s



                       DFT Final Molecular Orbital Analysis
                       ------------------------------------

 Vector    1  Occ=2.000000D+00  E=-2.142222D+00
              MO Center=  1.9D-13,  2.9D-13,  1.5D+00, r^2= 1.3D-01
   Bfn.  Coefficient  Atom+Function         Bfn.  Coefficient  Atom+Function  
  ----- ------------  ---------------      ----- ------------  ---------------
     1      0.989942  1 Li s          

 Vector    2  Occ=2.000000D+00  E=-3.448269D-01
              MO Center= -2.1D-12, -1.5D-12, -2.3D+00, r^2= 4.0D+00
   Bfn.  Coefficient  Atom+Function         Bfn.  Coefficient  Atom+Function  
  ----- ------------  ---------------      ----- ------------  ---------------
     6      0.642787  2 H  s                  7      0.611721  3 H  s          
     2      0.250234  1 Li s                  5     -0.199770  1 Li pz         

 Vector    3  Occ=0.000000D+00  E=-3.314136D-01
              MO Center= -8.6D-13, -7.7D-13, -3.1D+00, r^2= 4.0D+00
   Bfn.  Coefficient  Atom+Function         Bfn.  Coefficient  Atom+Function  
  ----- ------------  ---------------      ----- ------------  ---------------
     7      0.790939  3 H  s                  6     -0.498829  2 H  s          
     2     -0.217658  1 Li s                  5      0.166080  1 Li pz         

 Vector    4  Occ=0.000000D+00  E=-1.851725D-01
              MO Center=  2.0D-10,  2.0D-10,  1.1D+00, r^2= 4.0D+00
   Bfn.  Coefficient  Atom+Function         Bfn.  Coefficient  Atom+Function  
  ----- ------------  ---------------      ----- ------------  ---------------
     2      0.979771  1 Li s                  6     -0.487826  2 H  s          
     1     -0.269311  1 Li s          

 Vector    5  Occ=0.000000D+00  E=-1.162945D-01
              MO Center= -8.8D-11, -8.8D-11,  1.5D+00, r^2= 3.3D+00
   Bfn.  Coefficient  Atom+Function         Bfn.  Coefficient  Atom+Function  
  ----- ------------  ---------------      ----- ------------  ---------------
     3      0.707109  1 Li px                 4      0.707105  1 Li py         

 Vector    6  Occ=0.000000D+00  E=-1.162945D-01
              MO Center=  3.4D-12, -3.4D-12,  1.5D+00, r^2= 3.3D+00
   Bfn.  Coefficient  Atom+Function         Bfn.  Coefficient  Atom+Function  
  ----- ------------  ---------------      ----- ------------  ---------------
     3      0.707105  1 Li px                 4     -0.707109  1 Li py         

 Vector    7  Occ=0.000000D+00  E=-8.174263D-02
              MO Center= -1.1D-10, -1.1D-10,  1.6D+00, r^2= 3.6D+00
   Bfn.  Coefficient  Atom+Function         Bfn.  Coefficient  Atom+Function  
  ----- ------------  ---------------      ----- ------------  ---------------
     5      0.989258  1 Li pz                 6      0.416046  2 H  s          


 Parallel integral file used       1 records with       0 large values


            General Information
            -------------------
          SCF calculation type: DFT
          Wavefunction type:  closed shell.
          No. of atoms     :     3
          No. of electrons :     4
           Alpha electrons :     2
            Beta electrons :     2
          Charge           :     1
          Spin multiplicity:     1
          Use of symmetry is: off; symmetry adaption is: off
          Maximum number of iterations: 500
          AO basis - number of functions:     7
                     number of shells:     5
          Convergence on energy requested:  1.00D-06
          Convergence on density requested:  1.00D-05
          Convergence on gradient requested:  5.00D-04

              XC Information
              --------------
                         SCAN Method XC Functional
                  SCAN metaGGA Exchange Functional  1.000          
                        SCAN Correlation Potential  1.000          

             Grid Information
             ----------------
          Grid used for XC integration:  medium    
          Radial quadrature: Mura-Knowles        
          Angular quadrature: Lebedev. 
          Tag              B.-S. Rad. Rad. Pts. Rad. Cut. Ang. Pts.
          ---              ---------- --------- --------- ---------
          Li                  1.45       49          12.0       434
          H                   0.35       45          16.0       434
          Grid pruning is: on 
          Number of quadrature shells:   139
          Spatial weights used:  Erf1

          Convergence Information
          -----------------------
          Convergence aids based upon iterative change in 
          total energy or number of iterations. 
          Levelshifting, if invoked, occurs when the 
          HOMO/LUMO gap drops below (HL_TOL):  1.00D-02
          DIIS, if invoked, will attempt to extrapolate 
          using up to (NFOCK): 10 stored Fock matrices.

                    Damping( 0%)  Levelshifting(0.5)       DIIS
                  --------------- ------------------- ---------------
          dE  on:    start            ASAP                start   
          dE off:    2 iters        500 iters           500 iters 


      Screening Tolerance Information
      -------------------------------
          Density screening/tol_rho:  1.00D-10
          AO Gaussian exp screening on grid/accAOfunc:  14
          CD Gaussian exp screening on grid/accCDfunc:  20
          XC Gaussian exp screening on grid/accXCfunc:  20
          Schwarz screening/accCoul:  1.00D-08



                            NWChem DFT Gradient Module
                            --------------------------



  charge          =   1.00
  wavefunction    = closed shell

HVD: EAF_MAX_FILES: 1024
HVD: eaf_open: 0: ./mcscf_lih2_sto3g_neb_dat.gridpts.0


                         DFT ENERGY GRADIENTS

    atom               coordinates                        gradient
                 x          y          z           x          y          z
   1 Li      0.000000   0.000000   2.899690   -0.000000  -0.000000   0.022142
   2 H       0.000000   0.000000  -2.516264    0.000000   0.000000  -0.011731
   3 H       0.000000   0.000000  -8.438666    0.000000   0.000000  -0.010411

                 ----------------------------------------
                 |  Time  |  1-e(secs)   |  2-e(secs)   |
                 ----------------------------------------
                 |  CPU   |       0.00   |       0.00   |
                 ----------------------------------------
                 |  WALL  |       0.00   |       0.00   |
                 ----------------------------------------
 string: finished bead   3 energy=         -8.037552
 string: running bead                     4

                                 NWChem DFT Module
                                 -----------------




 Summary of "ao basis" -> "ao basis" (cartesian)
 ------------------------------------------------------------------------------
       Tag                 Description            Shells   Functions and Types
 ---------------- ------------------------------  ------  ---------------------
 Li                          sto-3g                  3        5   2s1p
 H                           sto-3g                  1        1   1s


  Caching 1-el integrals 

            General Information
            -------------------
          SCF calculation type: DFT
          Wavefunction type:  closed shell.
          No. of atoms     :     3
          No. of electrons :     4
           Alpha electrons :     2
            Beta electrons :     2
          Charge           :     1
          Spin multiplicity:     1
          Use of symmetry is: off; symmetry adaption is: off
          Maximum number of iterations: 500
          AO basis - number of functions:     7
                     number of shells:     5
          Convergence on energy requested:  1.00D-06
          Convergence on density requested:  1.00D-05
          Convergence on gradient requested:  5.00D-04

              XC Information
              --------------
                         SCAN Method XC Functional
                  SCAN metaGGA Exchange Functional  1.000          
                        SCAN Correlation Potential  1.000          

             Grid Information
             ----------------
          Grid used for XC integration:  medium    
          Radial quadrature: Mura-Knowles        
          Angular quadrature: Lebedev. 
          Tag              B.-S. Rad. Rad. Pts. Rad. Cut. Ang. Pts.
          ---              ---------- --------- --------- ---------
          Li                  1.45       49          12.0       434
          H                   0.35       45          16.0       434
          Grid pruning is: on 
          Number of quadrature shells:   139
          Spatial weights used:  Erf1

          Convergence Information
          -----------------------
          Convergence aids based upon iterative change in 
          total energy or number of iterations. 
          Levelshifting, if invoked, occurs when the 
          HOMO/LUMO gap drops below (HL_TOL):  1.00D-02
          DIIS, if invoked, will attempt to extrapolate 
          using up to (NFOCK): 10 stored Fock matrices.

                    Damping( 0%)  Levelshifting(0.5)       DIIS
                  --------------- ------------------- ---------------
          dE  on:    start            ASAP                start   
          dE off:    2 iters        500 iters           500 iters 


      Screening Tolerance Information
      -------------------------------
          Density screening/tol_rho:  1.00D-10
          AO Gaussian exp screening on grid/accAOfunc:  14
          CD Gaussian exp screening on grid/accCDfunc:  20
          XC Gaussian exp screening on grid/accXCfunc:  20
          Schwarz screening/accCoul:  1.00D-08


 Loading old vectors from job with title :





 ----------------------------------------------
         Quadratically convergent ROKS

 Convergence threshold     :          5.000E-04
 Maximum no. of iterations :          500
 Final Fock-matrix accuracy:          1.000E-08
 ----------------------------------------------

HVD: EAF_MAX_FILES: 1024
HVD: eaf_open: 0: ./mcscf_lih2_sto3g_neb_dat.junk.0

 #quartets = 1.050D+02 #integrals = 1.670D+02 #direct =  0.0% #cached =100.0%


 Integral file          = ./mcscf_lih2_sto3g_neb_dat.aoints.0
 Record size in doubles =    65536    No. of integs per rec  =    43688
 Max. records in memory =        3    Max. records in file   = ********
 No. of bits per label  =        8    No. of bits per value  =       64

HVD: EAF_MAX_FILES: 1024
HVD: eaf_open: 0: ./mcscf_lih2_sto3g_neb_dat.junk.0

 Grid_pts file          = ./mcscf_lih2_sto3g_neb_dat.gridpts.0
 Record size in doubles =  12289        No. of grid_pts per rec  =   3070
 Max. records in memory =     23        Max. recs in file   = *********

HVD: EAF_MAX_FILES: 1024
HVD: eaf_open: 0: ./mcscf_lih2_sto3g_neb_dat.gridpts.0

              iter       energy          gnorm     gmax       time
             ----- ------------------- --------- --------- --------
                 1       -8.0378878963  6.30D-02  4.40D-02      1.5
                 2       -8.0395864002  2.28D-02  1.82D-02      1.5
                 3       -8.0398624884  8.63D-03  7.02D-03      1.5
                 4       -8.0399051951  3.12D-03  2.54D-03      1.5
                 5       -8.0399108635  1.12D-03  9.03D-04      1.6
                 6       -8.0399115932  4.03D-04  3.23D-04      1.6


         Total DFT energy =       -8.039911593150
      One electron energy =      -11.447156017528
           Coulomb energy =        4.749474151204
    Exchange-Corr. energy =       -2.273828934337
 Nuclear repulsion energy =        0.931599207510

 Numeric. integr. density =        3.999999958850

     Total iterative time =      0.1s



                       DFT Final Molecular Orbital Analysis
                       ------------------------------------

 Vector    1  Occ=2.000000D+00  E=-2.171474D+00
              MO Center= -5.0D-13, -4.0D-13,  1.5D+00, r^2= 1.3D-01
   Bfn.  Coefficient  Atom+Function         Bfn.  Coefficient  Atom+Function  
  ----- ------------  ---------------      ----- ------------  ---------------
     1      0.990245  1 Li s          

 Vector    2  Occ=2.000000D+00  E=-3.180574D-01
              MO Center=  9.1D-12,  9.3D-12, -2.8D+00, r^2= 3.0D+00
   Bfn.  Coefficient  Atom+Function         Bfn.  Coefficient  Atom+Function  
  ----- ------------  ---------------      ----- ------------  ---------------
     6      0.669369  2 H  s                  7      0.633528  3 H  s          
     2      0.205543  1 Li s                  5     -0.153459  1 Li pz         

 Vector    3  Occ=0.000000D+00  E=-2.792098D-01
              MO Center= -1.3D-11, -1.3D-11, -3.0D+00, r^2= 4.2D+00
   Bfn.  Coefficient  Atom+Function         Bfn.  Coefficient  Atom+Function  
  ----- ------------  ---------------      ----- ------------  ---------------
     7      0.765598  3 H  s                  6     -0.532101  2 H  s          
     2     -0.303859  1 Li s                  5      0.186495  1 Li pz         

 Vector    4  Occ=0.000000D+00  E=-2.067954D-01
              MO Center= -2.4D-09, -2.4D-09,  6.3D-01, r^2= 4.5D+00
   Bfn.  Coefficient  Atom+Function         Bfn.  Coefficient  Atom+Function  
  ----- ------------  ---------------      ----- ------------  ---------------
     2      0.932803  1 Li s                  6     -0.477635  2 H  s          
     1     -0.257444  1 Li s                  5     -0.174035  1 Li pz         

 Vector    5  Occ=0.000000D+00  E=-1.228080D-01
              MO Center=  1.0D-12, -1.0D-12,  1.5D+00, r^2= 3.3D+00
   Bfn.  Coefficient  Atom+Function         Bfn.  Coefficient  Atom+Function  
  ----- ------------  ---------------      ----- ------------  ---------------
     3      0.707107  1 Li px                 4     -0.707107  1 Li py         

 Vector    6  Occ=0.000000D+00  E=-1.228080D-01
              MO Center= -5.6D-09, -5.6D-09,  1.5D+00, r^2= 3.3D+00
   Bfn.  Coefficient  Atom+Function         Bfn.  Coefficient  Atom+Function  
  ----- ------------  ---------------      ----- ------------  ---------------
     3      0.707107  1 Li px                 4      0.707107  1 Li py         

 Vector    7  Occ=0.000000D+00  E=-1.050942D-01
              MO Center=  8.0D-09,  8.0D-09,  1.9D+00, r^2= 3.5D+00
   Bfn.  Coefficient  Atom+Function         Bfn.  Coefficient  Atom+Function  
  ----- ------------  ---------------      ----- ------------  ---------------
     5      0.962769  1 Li pz                 6      0.254332  2 H  s          
     2      0.249654  1 Li s          


 Parallel integral file used       1 records with       0 large values


            General Information
            -------------------
          SCF calculation type: DFT
          Wavefunction type:  closed shell.
          No. of atoms     :     3
          No. of electrons :     4
           Alpha electrons :     2
            Beta electrons :     2
          Charge           :     1
          Spin multiplicity:     1
          Use of symmetry is: off; symmetry adaption is: off
          Maximum number of iterations: 500
          AO basis - number of functions:     7
                     number of shells:     5
          Convergence on energy requested:  1.00D-06
          Convergence on density requested:  1.00D-05
          Convergence on gradient requested:  5.00D-04

              XC Information
              --------------
                         SCAN Method XC Functional
                  SCAN metaGGA Exchange Functional  1.000          
                        SCAN Correlation Potential  1.000          

             Grid Information
             ----------------
          Grid used for XC integration:  medium    
          Radial quadrature: Mura-Knowles        
          Angular quadrature: Lebedev. 
          Tag              B.-S. Rad. Rad. Pts. Rad. Cut. Ang. Pts.
          ---              ---------- --------- --------- ---------
          Li                  1.45       49          12.0       434
          H                   0.35       45          16.0       434
          Grid pruning is: on 
          Number of quadrature shells:   139
          Spatial weights used:  Erf1

          Convergence Information
          -----------------------
          Convergence aids based upon iterative change in 
          total energy or number of iterations. 
          Levelshifting, if invoked, occurs when the 
          HOMO/LUMO gap drops below (HL_TOL):  1.00D-02
          DIIS, if invoked, will attempt to extrapolate 
          using up to (NFOCK): 10 stored Fock matrices.

                    Damping( 0%)  Levelshifting(0.5)       DIIS
                  --------------- ------------------- ---------------
          dE  on:    start            ASAP                start   
          dE off:    2 iters        500 iters           500 iters 


      Screening Tolerance Information
      -------------------------------
          Density screening/tol_rho:  1.00D-10
          AO Gaussian exp screening on grid/accAOfunc:  14
          CD Gaussian exp screening on grid/accCDfunc:  20
          XC Gaussian exp screening on grid/accXCfunc:  20
          Schwarz screening/accCoul:  1.00D-08



                            NWChem DFT Gradient Module
                            --------------------------



  charge          =   1.00
  wavefunction    = closed shell

HVD: EAF_MAX_FILES: 1024
HVD: eaf_open: 0: ./mcscf_lih2_sto3g_neb_dat.gridpts.0


                         DFT ENERGY GRADIENTS

    atom               coordinates                        gradient
                 x          y          z           x          y          z
   1 Li      0.000000   0.000000   2.899933    0.000000   0.000000   0.012470
   2 H       0.000000   0.000000  -3.644188   -0.000000  -0.000000   0.019269
   3 H       0.000000   0.000000  -8.438423   -0.000000  -0.000000  -0.031739

                 ----------------------------------------
                 |  Time  |  1-e(secs)   |  2-e(secs)   |
                 ----------------------------------------
                 |  CPU   |       0.00   |       0.00   |
                 ----------------------------------------
                 |  WALL  |       0.00   |       0.00   |
                 ----------------------------------------
 string: finished bead   4 energy=         -8.039912
 string: running bead                     5

                                 NWChem DFT Module
                                 -----------------




 Summary of "ao basis" -> "ao basis" (cartesian)
 ------------------------------------------------------------------------------
       Tag                 Description            Shells   Functions and Types
 ---------------- ------------------------------  ------  ---------------------
 Li                          sto-3g                  3        5   2s1p
 H                           sto-3g                  1        1   1s


  Caching 1-el integrals 

            General Information
            -------------------
          SCF calculation type: DFT
          Wavefunction type:  closed shell.
          No. of atoms     :     3
          No. of electrons :     4
           Alpha electrons :     2
            Beta electrons :     2
          Charge           :     1
          Spin multiplicity:     1
          Use of symmetry is: off; symmetry adaption is: off
          Maximum number of iterations: 500
          AO basis - number of functions:     7
                     number of shells:     5
          Convergence on energy requested:  1.00D-06
          Convergence on density requested:  1.00D-05
          Convergence on gradient requested:  5.00D-04

              XC Information
              --------------
                         SCAN Method XC Functional
                  SCAN metaGGA Exchange Functional  1.000          
                        SCAN Correlation Potential  1.000          

             Grid Information
             ----------------
          Grid used for XC integration:  medium    
          Radial quadrature: Mura-Knowles        
          Angular quadrature: Lebedev. 
          Tag              B.-S. Rad. Rad. Pts. Rad. Cut. Ang. Pts.
          ---              ---------- --------- --------- ---------
          Li                  1.45       49          12.0       434
          H                   0.35       45          16.0       434
          Grid pruning is: on 
          Number of quadrature shells:   139
          Spatial weights used:  Erf1

          Convergence Information
          -----------------------
          Convergence aids based upon iterative change in 
          total energy or number of iterations. 
          Levelshifting, if invoked, occurs when the 
          HOMO/LUMO gap drops below (HL_TOL):  1.00D-02
          DIIS, if invoked, will attempt to extrapolate 
          using up to (NFOCK): 10 stored Fock matrices.

                    Damping( 0%)  Levelshifting(0.5)       DIIS
                  --------------- ------------------- ---------------
          dE  on:    start            ASAP                start   
          dE off:    2 iters        500 iters           500 iters 


      Screening Tolerance Information
      -------------------------------
          Density screening/tol_rho:  1.00D-10
          AO Gaussian exp screening on grid/accAOfunc:  14
          CD Gaussian exp screening on grid/accCDfunc:  20
          XC Gaussian exp screening on grid/accXCfunc:  20
          Schwarz screening/accCoul:  1.00D-08


 Loading old vectors from job with title :





 ----------------------------------------------
         Quadratically convergent ROKS

 Convergence threshold     :          5.000E-04
 Maximum no. of iterations :          500
 Final Fock-matrix accuracy:          1.000E-08
 ----------------------------------------------

HVD: EAF_MAX_FILES: 1024
HVD: eaf_open: 0: ./mcscf_lih2_sto3g_neb_dat.junk.0

 #quartets = 1.050D+02 #integrals = 1.660D+02 #direct =  0.0% #cached =100.0%


 Integral file          = ./mcscf_lih2_sto3g_neb_dat.aoints.0
 Record size in doubles =    65536    No. of integs per rec  =    43688
 Max. records in memory =        3    Max. records in file   = ********
 No. of bits per label  =        8    No. of bits per value  =       64

HVD: EAF_MAX_FILES: 1024
HVD: eaf_open: 0: ./mcscf_lih2_sto3g_neb_dat.junk.0

 Grid_pts file          = ./mcscf_lih2_sto3g_neb_dat.gridpts.0
 Record size in doubles =  12289        No. of grid_pts per rec  =   3070
 Max. records in memory =     23        Max. recs in file   = *********

HVD: EAF_MAX_FILES: 1024
HVD: eaf_open: 0: ./mcscf_lih2_sto3g_neb_dat.gridpts.0

              iter       energy          gnorm     gmax       time
             ----- ------------------- --------- --------- --------
                 1       -8.0864713422  6.68D-02  4.26D-02      1.7
                 2       -8.0891131500  2.66D-02  2.15D-02      1.7
                 3       -8.0896966991  1.16D-02  9.96D-03      1.7
                 4       -8.0898367262  5.65D-03  4.77D-03      1.7
                 5       -8.0898711122  2.43D-03  2.05D-03      1.8
                 6       -8.0898772467  8.83D-04  6.92D-04      1.8
                 7       -8.0898779728  3.00D-04  2.26D-04      1.8


         Total DFT energy =       -8.089877972781
      One electron energy =      -11.479224368727
           Coulomb energy =        4.769820309620
    Exchange-Corr. energy =       -2.308851987683
 Nuclear repulsion energy =        0.928378074009

 Numeric. integr. density =        3.999999125033

     Total iterative time =      0.1s



                       DFT Final Molecular Orbital Analysis
                       ------------------------------------

 Vector    1  Occ=2.000000D+00  E=-2.202505D+00
              MO Center= -5.8D-14,  4.4D-14,  1.5D+00, r^2= 1.3D-01
   Bfn.  Coefficient  Atom+Function         Bfn.  Coefficient  Atom+Function  
  ----- ------------  ---------------      ----- ------------  ---------------
     1      0.990579  1 Li s          

 Vector    2  Occ=2.000000D+00  E=-3.053502D-01
              MO Center= -2.9D-12, -2.8D-12, -3.4D+00, r^2= 1.7D+00
   Bfn.  Coefficient  Atom+Function         Bfn.  Coefficient  Atom+Function  
  ----- ------------  ---------------      ----- ------------  ---------------
     6      0.672000  2 H  s                  7      0.637323  3 H  s          

 Vector    3  Occ=0.000000D+00  E=-2.135407D-01
              MO Center= -8.2D-11, -7.9D-11, -2.5D-01, r^2= 7.0D+00
   Bfn.  Coefficient  Atom+Function         Bfn.  Coefficient  Atom+Function  
  ----- ------------  ---------------      ----- ------------  ---------------
     2      0.844259  1 Li s                  7     -0.442354  3 H  s          
     5     -0.288738  1 Li pz                 6      0.234428  2 H  s          
     1     -0.232714  1 Li s          

 Vector    4  Occ=0.000000D+00  E=-1.794942D-01
              MO Center= -4.6D-11, -4.5D-11, -2.2D+00, r^2= 6.6D+00
   Bfn.  Coefficient  Atom+Function         Bfn.  Coefficient  Atom+Function  
  ----- ------------  ---------------      ----- ------------  ---------------
     6      0.693090  2 H  s                  7     -0.639919  3 H  s          
     2     -0.518438  1 Li s          

 Vector    5  Occ=0.000000D+00  E=-1.120759D-01
              MO Center= -2.5D-13,  2.5D-13,  1.5D+00, r^2= 3.3D+00
   Bfn.  Coefficient  Atom+Function         Bfn.  Coefficient  Atom+Function  
  ----- ------------  ---------------      ----- ------------  ---------------
     3      0.707115  1 Li px                 4     -0.707098  1 Li py         

 Vector    6  Occ=0.000000D+00  E=-1.120759D-01
              MO Center= -7.5D-10, -7.5D-10,  1.5D+00, r^2= 3.3D+00
   Bfn.  Coefficient  Atom+Function         Bfn.  Coefficient  Atom+Function  
  ----- ------------  ---------------      ----- ------------  ---------------
     3      0.707098  1 Li px                 4      0.707115  1 Li py         

 Vector    7  Occ=0.000000D+00  E=-9.623026D-02
              MO Center=  8.9D-10,  8.8D-10,  1.9D+00, r^2= 3.6D+00
   Bfn.  Coefficient  Atom+Function         Bfn.  Coefficient  Atom+Function  
  ----- ------------  ---------------      ----- ------------  ---------------
     5      0.956372  1 Li pz                 2      0.264550  1 Li s          
     6      0.191758  2 H  s          


 Parallel integral file used       1 records with       0 large values


            General Information
            -------------------
          SCF calculation type: DFT
          Wavefunction type:  closed shell.
          No. of atoms     :     3
          No. of electrons :     4
           Alpha electrons :     2
            Beta electrons :     2
          Charge           :     1
          Spin multiplicity:     1
          Use of symmetry is: off; symmetry adaption is: off
          Maximum number of iterations: 500
          AO basis - number of functions:     7
                     number of shells:     5
          Convergence on energy requested:  1.00D-06
          Convergence on density requested:  1.00D-05
          Convergence on gradient requested:  5.00D-04

              XC Information
              --------------
                         SCAN Method XC Functional
                  SCAN metaGGA Exchange Functional  1.000          
                        SCAN Correlation Potential  1.000          

             Grid Information
             ----------------
          Grid used for XC integration:  medium    
          Radial quadrature: Mura-Knowles        
          Angular quadrature: Lebedev. 
          Tag              B.-S. Rad. Rad. Pts. Rad. Cut. Ang. Pts.
          ---              ---------- --------- --------- ---------
          Li                  1.45       49          12.0       434
          H                   0.35       45          16.0       434
          Grid pruning is: on 
          Number of quadrature shells:   139
          Spatial weights used:  Erf1

          Convergence Information
          -----------------------
          Convergence aids based upon iterative change in 
          total energy or number of iterations. 
          Levelshifting, if invoked, occurs when the 
          HOMO/LUMO gap drops below (HL_TOL):  1.00D-02
          DIIS, if invoked, will attempt to extrapolate 
          using up to (NFOCK): 10 stored Fock matrices.

                    Damping( 0%)  Levelshifting(0.5)       DIIS
                  --------------- ------------------- ---------------
          dE  on:    start            ASAP                start   
          dE off:    2 iters        500 iters           500 iters 


      Screening Tolerance Information
      -------------------------------
          Density screening/tol_rho:  1.00D-10
          AO Gaussian exp screening on grid/accAOfunc:  14
          CD Gaussian exp screening on grid/accCDfunc:  20
          XC Gaussian exp screening on grid/accXCfunc:  20
          Schwarz screening/accCoul:  1.00D-08



                            NWChem DFT Gradient Module
                            --------------------------



  charge          =   1.00
  wavefunction    = closed shell

HVD: EAF_MAX_FILES: 1024
HVD: eaf_open: 0: ./mcscf_lih2_sto3g_neb_dat.gridpts.0


                         DFT ENERGY GRADIENTS

    atom               coordinates                        gradient
                 x          y          z           x          y          z
   1 Li      0.000000   0.000000   2.899980   -0.000000  -0.000000   0.003806
   2 H       0.000000   0.000000  -4.772307    0.000000   0.000000   0.073410
   3 H       0.000000   0.000000  -8.438376    0.000000   0.000000  -0.077216

                 ----------------------------------------
                 |  Time  |  1-e(secs)   |  2-e(secs)   |
                 ----------------------------------------
                 |  CPU   |       0.00   |       0.00   |
                 ----------------------------------------
                 |  WALL  |       0.00   |       0.00   |
                 ----------------------------------------
 string: finished bead   5 energy=         -8.089878
 string: running bead                     6

                                 NWChem DFT Module
                                 -----------------




 Summary of "ao basis" -> "ao basis" (cartesian)
 ------------------------------------------------------------------------------
       Tag                 Description            Shells   Functions and Types
 ---------------- ------------------------------  ------  ---------------------
 Li                          sto-3g                  3        5   2s1p
 H                           sto-3g                  1        1   1s


  Caching 1-el integrals 

            General Information
            -------------------
          SCF calculation type: DFT
          Wavefunction type:  closed shell.
          No. of atoms     :     3
          No. of electrons :     4
           Alpha electrons :     2
            Beta electrons :     2
          Charge           :     1
          Spin multiplicity:     1
          Use of symmetry is: off; symmetry adaption is: off
          Maximum number of iterations: 500
          AO basis - number of functions:     7
                     number of shells:     5
          Convergence on energy requested:  1.00D-06
          Convergence on density requested:  1.00D-05
          Convergence on gradient requested:  5.00D-04

              XC Information
              --------------
                         SCAN Method XC Functional
                  SCAN metaGGA Exchange Functional  1.000          
                        SCAN Correlation Potential  1.000          

             Grid Information
             ----------------
          Grid used for XC integration:  medium    
          Radial quadrature: Mura-Knowles        
          Angular quadrature: Lebedev. 
          Tag              B.-S. Rad. Rad. Pts. Rad. Cut. Ang. Pts.
          ---              ---------- --------- --------- ---------
          Li                  1.45       49          12.0       434
          H                   0.35       45          16.0       434
          Grid pruning is: on 
          Number of quadrature shells:   139
          Spatial weights used:  Erf1

          Convergence Information
          -----------------------
          Convergence aids based upon iterative change in 
          total energy or number of iterations. 
          Levelshifting, if invoked, occurs when the 
          HOMO/LUMO gap drops below (HL_TOL):  1.00D-02
          DIIS, if invoked, will attempt to extrapolate 
          using up to (NFOCK): 10 stored Fock matrices.

                    Damping( 0%)  Levelshifting(0.5)       DIIS
                  --------------- ------------------- ---------------
          dE  on:    start            ASAP                start   
          dE off:    2 iters        500 iters           500 iters 


      Screening Tolerance Information
      -------------------------------
          Density screening/tol_rho:  1.00D-10
          AO Gaussian exp screening on grid/accAOfunc:  14
          CD Gaussian exp screening on grid/accCDfunc:  20
          XC Gaussian exp screening on grid/accXCfunc:  20
          Schwarz screening/accCoul:  1.00D-08


 Loading old vectors from job with title :





 ----------------------------------------------
         Quadratically convergent ROKS

 Convergence threshold     :          5.000E-04
 Maximum no. of iterations :          500
 Final Fock-matrix accuracy:          1.000E-08
 ----------------------------------------------

HVD: EAF_MAX_FILES: 1024
HVD: eaf_open: 0: ./mcscf_lih2_sto3g_neb_dat.junk.0

 #quartets = 1.030D+02 #integrals = 1.640D+02 #direct =  0.0% #cached =100.0%


 Integral file          = ./mcscf_lih2_sto3g_neb_dat.aoints.0
 Record size in doubles =    65536    No. of integs per rec  =    43688
 Max. records in memory =        3    Max. records in file   = ********
 No. of bits per label  =        8    No. of bits per value  =       64

HVD: EAF_MAX_FILES: 1024
HVD: eaf_open: 0: ./mcscf_lih2_sto3g_neb_dat.junk.0

 Grid_pts file          = ./mcscf_lih2_sto3g_neb_dat.gridpts.0
 Record size in doubles =  12289        No. of grid_pts per rec  =   3070
 Max. records in memory =     23        Max. recs in file   = *********

HVD: EAF_MAX_FILES: 1024
HVD: eaf_open: 0: ./mcscf_lih2_sto3g_neb_dat.gridpts.0

              iter       energy          gnorm     gmax       time
             ----- ------------------- --------- --------- --------
                 1       -8.2053630805  5.67D-02  4.99D-02      1.9
                 2       -8.2076909834  1.68D-02  1.43D-02      1.9
                 3       -8.2079007452  4.03D-03  3.55D-03      1.9
                 4       -8.2079111334  6.76D-04  5.23D-04      2.0
                 5       -8.2079113839  1.58D-04  1.32D-04      2.0


         Total DFT energy =       -8.207911383934
      One electron energy =      -11.728065908839
           Coulomb energy =        4.862311466750
    Exchange-Corr. energy =       -2.341663319571
 Nuclear repulsion energy =        0.999506377727

 Numeric. integr. density =        3.999999533924

     Total iterative time =      0.1s



                       DFT Final Molecular Orbital Analysis
                       ------------------------------------

 Vector    1  Occ=2.000000D+00  E=-2.213078D+00
              MO Center= -1.2D-13, -2.7D-13,  1.5D+00, r^2= 1.2D-01
   Bfn.  Coefficient  Atom+Function         Bfn.  Coefficient  Atom+Function  
  ----- ------------  ---------------      ----- ------------  ---------------
     1      0.990730  1 Li s          

 Vector    2  Occ=2.000000D+00  E=-3.478039D-01
              MO Center=  2.7D-13,  2.5D-13, -3.8D+00, r^2= 9.7D-01
   Bfn.  Coefficient  Atom+Function         Bfn.  Coefficient  Atom+Function  
  ----- ------------  ---------------      ----- ------------  ---------------
     6      0.627872  2 H  s                  7      0.601597  3 H  s          

 Vector    3  Occ=0.000000D+00  E=-1.567426D-01
              MO Center=  5.1D-10,  4.7D-10,  9.8D-01, r^2= 3.3D+00
   Bfn.  Coefficient  Atom+Function         Bfn.  Coefficient  Atom+Function  
  ----- ------------  ---------------      ----- ------------  ---------------
     2      0.983780  1 Li s                  5     -0.283792  1 Li pz         
     1     -0.270530  1 Li s          

 Vector    4  Occ=0.000000D+00  E=-7.172799D-02
              MO Center=  1.0D-10, -1.0D-10,  1.5D+00, r^2= 3.3D+00
   Bfn.  Coefficient  Atom+Function         Bfn.  Coefficient  Atom+Function  
  ----- ------------  ---------------      ----- ------------  ---------------
     3      0.707183  1 Li px                 4     -0.707030  1 Li py         

 Vector    5  Occ=0.000000D+00  E=-7.172799D-02
              MO Center= -1.0D-11, -1.0D-11,  1.5D+00, r^2= 3.3D+00
   Bfn.  Coefficient  Atom+Function         Bfn.  Coefficient  Atom+Function  
  ----- ------------  ---------------      ----- ------------  ---------------
     3      0.707030  1 Li px                 4      0.707183  1 Li py         

 Vector    6  Occ=0.000000D+00  E=-6.651363D-02
              MO Center= -5.9D-10, -3.6D-10,  1.2D+00, r^2= 7.1D+00
   Bfn.  Coefficient  Atom+Function         Bfn.  Coefficient  Atom+Function  
[...]
  --------------------------------------

    Atom       Charge   Shell Charges
 -----------   ------   -------------------------------------------------------
    1 Li   3     2.01   1.98  0.02  0.00
    2 H    1     1.00   1.00
    3 H    1     0.99   0.99

    Mulliken analysis of the active space density
    ---------------------------------------------

    Atom       Charge   Shell Charges
 -----------   ------   -------------------------------------------------------
    1 Li   3     2.01   1.98  0.02  0.00
    2 H    1     1.00   1.00
    3 H    1     0.99   0.99

 Parallel integral file used       1 records with       0 large values

 string: finished bead   5 energy=         -8.091481
 string: running bead                     6

                            NWChem Direct MCSCF Module
                            --------------------------


     -----------------------------------
       Basis functions:              7
       Inactive shells:              0
       Active shells:                7
       Active electrons:             4
       Symmetry:                    a       
       Multiplicity:                 1
       Orbital rotations:            0
     -----------------------------------

     -----------------------------------
       E2 extrapolation:             F
       Conjugacy:                    T
       Micro CI relax:               T
       Canonical orbitals:           T
       Maximum iterations:          20
       Converge threshold:    1.00E-04
       Conjugacy resets:            20
       Initial levelshift:        0.10
     -----------------------------------

   input molecular orbitals = ./mcscf_lih2_sto3g_neb_dat.movecs
  output molecular orbtials = ./mcscf_lih2_sto3g_neb_dat.movecs

       No. of determinants:           441


  Starting Orbital Energies
    -2.213187    -0.357976    -0.150468    -0.061868    -0.061868    -0.058057
    -0.024097

  Orbital Symmetry Irreps
a    a    a    a    a    a    a   
HVD: EAF_MAX_FILES: 1024
HVD: eaf_open: 0: ./mcscf_lih2_sto3g_neb_dat.moao.0
HVD: EOF_Open: 0 ./mcscf_lih2_sto3g_neb_dat.moao.0 0
HVD: EAF_MAX_FILES: 1024
HVD: eaf_open: 1: ./mcscf_lih2_sto3g_neb_dat.junk.0

 #quartets = 1.130D+02 #integrals = 1.680D+02 #direct =  0.0% #cached =100.0%


 Integral file          = ./mcscf_lih2_sto3g_neb_dat.aoints.0
 Record size in doubles =    65536    No. of integs per rec  =    43688
 Max. records in memory =        3    Max. records in file   = ********
 No. of bits per label  =        8    No. of bits per value  =       64




          %%%%% MacroIteration   1 %%%%%

 HVD: begin file_write_ga: ./mcscf_lih2_sto3g_neb_dat.civec                                                                                                                                                                                                                               
HVD: EOF_Open: 0 ./mcscf_lih2_sto3g_neb_dat.moao.0 0
HVD: EAF_MAX_FILES: 1024
HVD: eaf_open: 1: ./mcscf_lih2_sto3g_neb_dat.civec
 HVD: end   file_write_ga

          Number of sigma calls:        9
                       o<<<<< (aa):             0.00
                       o<<<<< (bb):             0.00
                       o<<<<< (ab):             0.00
                       o<<<<< (total)           0.00
                       o<<<<< (aa) ff           0.00
                       o<<<<< (aa) gop          0.00
                       o<<<<< (aa) dot          0.00
                       o<<<<< (ab) str          0.00
                       o<<<<< (ab) gath         0.00
                       o<<<<< (ab) dotab        0.00
                       o<<<<< (ab) scat         0.00
                       o<<<<< (ab) sync         0.00
                       o<<<<< Density           0.00
                       o<<<<< Density one       0.00
                       o<<<<< Density two       0.00
                       o<<<<< Density ab        0.00
                       o<<<<< Spin adapt        0.00
                       o<<<<< Symm adapt        0.00

                       o<<<<< (ab) max sync:      0.00

           >>>| Valence CI:             -9.198201502210
           >>>| MCSCF energy:           -8.174996308802
           >>>| Gradient norm:          0.000000000D+00




     ==============================
            MCSCF Converged
     ==============================



          Canonical Eigenvalues

              1      
    1   -2.2132
    2   -0.3580
    3   -0.1505
    4   -0.0619
    5   -0.0619
    6   -0.0581
    7   -0.0241

 HVD: begin file_read_ga: ./mcscf_lih2_sto3g_neb_dat.civec                                                                                                                                                                                                                               
HVD: EOF_Open: 0 ./mcscf_lih2_sto3g_neb_dat.moao.0 0
HVD: EAF_MAX_FILES: 1024
HVD: eaf_open: 1: ./mcscf_lih2_sto3g_neb_dat.civec
 HVD: end   file_read_ga

          Converged CI vector

   Index           Coefficient          Config. Occupation
         1         -0.96337763          1  2  1  2
        23          0.26807933          1  3  1  3
 HVD: begin file_write_ga: ./mcscf_lih2_sto3g_neb_dat.civec                                                                                                                                                                                                                               
HVD: EOF_Open: 0 ./mcscf_lih2_sto3g_neb_dat.moao.0 0
HVD: EAF_MAX_FILES: 1024
HVD: eaf_open: 1: ./mcscf_lih2_sto3g_neb_dat.civec
 HVD: end   file_write_ga

          Number of sigma calls:        1
                       o<<<<< (aa):             0.00
                       o<<<<< (bb):             0.00
                       o<<<<< (ab):             0.00
                       o<<<<< (total)           0.00
                       o<<<<< (aa) ff           0.00
                       o<<<<< (aa) gop          0.00
                       o<<<<< (aa) dot          0.00
                       o<<<<< (ab) str          0.00
                       o<<<<< (ab) gath         0.00
                       o<<<<< (ab) dotab        0.00
                       o<<<<< (ab) scat         0.00
                       o<<<<< (ab) sync         0.00
                       o<<<<< Density           0.00
                       o<<<<< Density one       0.00
                       o<<<<< Density two       0.00
                       o<<<<< Density ab        0.00
                       o<<<<< Spin adapt        0.00
                       o<<<<< Symm adapt        0.00

                       o<<<<< (ab) max sync:      0.00



          Natural orbital occupation numbers

              1      
    1    1.9999
    2    1.8563
    3    0.1437
    4    0.0001
    5    0.0000
    6    0.0000
    7    0.0000

 HVD: begin file_write_ga: ./mcscf_lih2_sto3g_neb_dat.civec                                                                                                                                                                                                                               
HVD: EOF_Open: 0 ./mcscf_lih2_sto3g_neb_dat.moao.0 0
HVD: EAF_MAX_FILES: 1024
HVD: eaf_open: 1: ./mcscf_lih2_sto3g_neb_dat.civec
 HVD: end   file_write_ga

          Number of sigma calls:        9
                       o<<<<< (aa):             0.00
                       o<<<<< (bb):             0.00
                       o<<<<< (ab):             0.00
                       o<<<<< (total)           0.00
                       o<<<<< (aa) ff           0.00
                       o<<<<< (aa) gop          0.00
                       o<<<<< (aa) dot          0.00
                       o<<<<< (ab) str          0.00
                       o<<<<< (ab) gath         0.00
                       o<<<<< (ab) dotab        0.00
                       o<<<<< (ab) scat         0.00
                       o<<<<< (ab) sync         0.00
                       o<<<<< Density           0.00
                       o<<<<< Density one       0.00
                       o<<<<< Density two       0.00
                       o<<<<< Density ab        0.00
                       o<<<<< Spin adapt        0.00
                       o<<<<< Symm adapt        0.00

                       o<<<<< (ab) max sync:      0.00


       Final MCSCF results 
       ------------------- 

       Total MCSCF energy =     -8.174996308802
            Gradient norm =      0.0D+00

    CPU time for solution =      0.1s
   Wall time for solution =      0.1s



                        Analysis of MCSCF natural orbitals
                        ----------------------------------

 Vector    1  Occ=1.999926D+00  E=-2.213187D+00  Symmetry=a
              MO Center=  3.2D-14,  2.7D-14,  1.5D+00, r^2= 1.2D-01
   Bfn.  Coefficient  Atom+Function         Bfn.  Coefficient  Atom+Function  
  ----- ------------  ---------------      ----- ------------  ---------------
     1      0.992369  1 Li s          

 Vector    2  Occ=1.856261D+00  E=-3.579759D-01  Symmetry=a
              MO Center= -1.6D-14, -1.2D-14, -3.7D+00, r^2= 9.3D-01
   Bfn.  Coefficient  Atom+Function         Bfn.  Coefficient  Atom+Function  
  ----- ------------  ---------------      ----- ------------  ---------------
     6      0.618910  2 H  s                  7      0.598167  3 H  s          

 Vector    3  Occ=1.437384D-01  E=-1.504675D-01  Symmetry=a
              MO Center= -1.5D-14, -1.1D-14, -3.8D+00, r^2= 1.0D+00
   Bfn.  Coefficient  Atom+Function         Bfn.  Coefficient  Atom+Function  
  ----- ------------  ---------------      ----- ------------  ---------------
     7     -0.883354  3 H  s                  6      0.868110  2 H  s          

 Vector    4  Occ=5.744675D-05  E=-6.186800D-02  Symmetry=a
              MO Center=  2.6D-13,  2.0D-12,  1.5D+00, r^2= 3.4D+00
   Bfn.  Coefficient  Atom+Function         Bfn.  Coefficient  Atom+Function  
  ----- ------------  ---------------      ----- ------------  ---------------
     2      1.030096  1 Li s                  1     -0.277404  1 Li s          

 Vector    5  Occ=5.711855D-06  E=-6.186800D-02  Symmetry=a
              MO Center= -1.4D-13, -2.2D-13,  1.5D+00, r^2= 3.3D+00
   Bfn.  Coefficient  Atom+Function         Bfn.  Coefficient  Atom+Function  
  ----- ------------  ---------------      ----- ------------  ---------------
     5      1.000497  1 Li pz         

 Vector    6  Occ=5.395165D-06  E=-5.805668D-02  Symmetry=a
              MO Center= -3.9D-13, -7.3D-14,  1.5D+00, r^2= 3.3D+00
   Bfn.  Coefficient  Atom+Function         Bfn.  Coefficient  Atom+Function  
  ----- ------------  ---------------      ----- ------------  ---------------
     3      0.975568  1 Li px                 4      0.219699  1 Li py         

 Vector    7  Occ=5.395160D-06  E=-2.409657D-02  Symmetry=a
              MO Center=  3.9D-13, -1.6D-12,  1.5D+00, r^2= 3.3D+00
   Bfn.  Coefficient  Atom+Function         Bfn.  Coefficient  Atom+Function  
  ----- ------------  ---------------      ----- ------------  ---------------
     4      0.975568  1 Li py                 3     -0.219699  1 Li px         

HVD: EOF_Open: 0 ./mcscf_lih2_sto3g_neb_dat.moao.0 0
HVD: EAF_MAX_FILES: 1024
HVD: eaf_open: 1: ./mcscf_lih2_sto3g_neb_dat.mcpdm

 Wrote Lagrangian and 1- and 2-particle density matrices to ./mcscf_lih2_sto3g_neb_dat.mcpdm


     Multipole analysis of the density
     ---------------------------------

     L   x y z        total        nuclear
     -   - - -        -----        -------
     0   0 0 0      1.000000      5.000000

     1   1 0 0      0.000000      0.000000
     1   0 1 0      0.000000      0.000000
     1   0 0 1      2.838399     -5.474804

     2   2 0 0     -1.682591      0.000000
     2   1 1 0      0.000000      0.000000
     2   1 0 1      0.000000      0.000000
     2   0 2 0     -1.682591      0.000000
     2   0 1 1      0.000000      0.000000
     2   0 0 2      8.016947    128.586338


  Mulliken analysis of the total density
  --------------------------------------

    Atom       Charge   Shell Charges
 -----------   ------   -------------------------------------------------------
    1 Li   3     2.00   1.98  0.02  0.00
    2 H    1     1.02   1.02
    3 H    1     0.98   0.98

    Mulliken analysis of the active space density
    ---------------------------------------------

    Atom       Charge   Shell Charges
 -----------   ------   -------------------------------------------------------
    1 Li   3     2.00   1.98  0.02  0.00
    2 H    1     1.02   1.02
    3 H    1     0.98   0.98

 Parallel integral file used       1 records with       0 large values

 string: finished bead   6 energy=         -8.174996
 string: sum0,sum0_old=   0.0000000000000000        0.0000000000000000                         1 T   1.0000000000000000                         0
 string: gmax,grms,xrms,xmax=   0.0000000000000000        0.0000000000000000        5.1541249575171561E-010   3.2352946988112308E-009
@zts     1   0.000000   0.000000     -8.0840715     -8.0746821     -8.2727345     -8.0746821     -8.1231732     11.3
 string: Path Energy #                    1
 string:                     1  -8.0840714964900968     
 string:                     2  -8.0865837700053191     
 string:                     3  -8.0776627443235594     
 string:                     4  -8.0746821185046063     
 string:                     5  -8.0914814360443383     
 string:                     6  -8.1749963088022000     
 string:                     7  -8.2727344708242398     
@zts The string calculation converged

@zts Bead number    1  Potential Energy =      -8.084071496490
     3
 geometry
 Li                    0.00000000     0.00000000     1.53440000
 H                     0.00000000     0.00000000    -0.13760000
 H                     0.00000000     0.00000000    -4.46560000
@zts Bead number    2  Potential Energy =      -8.086583770005
     3
 geometry
 Li                    0.00000000     0.00000000     1.53430578
 H                    -0.00000000    -0.00000000    -0.73111582
 H                    -0.00000000    -0.00000000    -4.44956342
@zts Bead number    3  Potential Energy =      -8.077662744324
     3
 geometry
 Li                    0.00000000     0.00000000     1.53435088
 H                    -0.00000000    -0.00000000    -1.33735710
 H                    -0.00000000    -0.00000000    -4.44620318
@zts Bead number    4  Potential Energy =      -8.074682118505
     3
 geometry
 Li                   -0.00000000    -0.00000000     1.53434391
 H                     0.00000000     0.00000000    -1.93946365
 H                     0.00000000    -0.00000000    -4.43867008
@zts Bead number    5  Potential Energy =      -8.091481436044
     3
 geometry
 Li                    0.00000000     0.00000000     1.53430496
 H                    -0.00000000    -0.00000000    -2.52708783
 H                    -0.00000000    -0.00000000    -4.41668660
@zts Bead number    6  Potential Energy =      -8.174996308802
     3
 geometry
 Li                    0.00000000     0.00000000     1.53433560
 H                    -0.00000000    -0.00000000    -3.11008274
 H                    -0.00000000    -0.00000000    -4.39006553
@zts Bead number    7  Potential Energy =      -8.272734470824
     3
 geometry
 Li                    0.00000000     0.00000000     1.60999943
 H                     0.00000000     0.00000000    -3.64400057
 H                     0.00000000     0.00000000    -4.39000057


 Task  times  cpu:        1.0s     wall:        1.0s


                                NWChem Input Module
                                -------------------


 Summary of allocated global arrays
-----------------------------------
  No active global arrays


MA_summarize_allocated_blocks: starting scan ...
MA_summarize_allocated_blocks: scan completed: 0 heap blocks, 0 stack blocks
MA usage statistics:

	allocation statistics:
					      heap	     stack
					      ----	     -----
	current number of blocks	         0	         0
	maximum number of blocks	        22	        62
	current total bytes		         0	         0
	maximum total bytes		   3842032	  22537848
	maximum total K-bytes		      3843	     22538
	maximum total M-bytes		         4	        23


                                     CITATION
                                     --------
                Please cite the following reference when publishing
                           results obtained with NWChem:

          E. Apra, E. J. Bylaska, W. A. de Jong, N. Govind, K. Kowalski,
       T. P. Straatsma, M. Valiev, H. J. J. van Dam, Y. Alexeev, J. Anchell,
       V. Anisimov, F. W. Aquino, R. Atta-Fynn, J. Autschbach, N. P. Bauman,
     J. C. Becca, D. E. Bernholdt, K. Bhaskaran-Nair, S. Bogatko, P. Borowski,
         J. Boschen, J. Brabec, A. Bruner, E. Cauet, Y. Chen, G. N. Chuev,
      C. J. Cramer, J. Daily, M. J. O. Deegan, T. H. Dunning Jr., M. Dupuis,
   K. G. Dyall, G. I. Fann, S. A. Fischer, A. Fonari, H. Fruchtl, L. Gagliardi,
      J. Garza, N. Gawande, S. Ghosh, K. Glaesemann, A. W. Gotz, J. Hammond,
       V. Helms, E. D. Hermes, K. Hirao, S. Hirata, M. Jacquelin, L. Jensen,
   B. G. Johnson, H. Jonsson, R. A. Kendall, M. Klemm, R. Kobayashi, V. Konkov,
      S. Krishnamoorthy, M. Krishnan, Z. Lin, R. D. Lins, R. J. Littlefield,
      A. J. Logsdail, K. Lopata, W. Ma, A. V. Marenich, J. Martin del Campo,
   D. Mejia-Rodriguez, J. E. Moore, J. M. Mullin, T. Nakajima, D. R. Nascimento,
    J. A. Nichols, P. J. Nichols, J. Nieplocha, A. Otero-de-la-Roza, B. Palmer,
    A. Panyala, T. Pirojsirikul, B. Peng, R. Peverati, J. Pittner, L. Pollack,
   R. M. Richard, P. Sadayappan, G. C. Schatz, W. A. Shelton, D. W. Silverstein,
   D. M. A. Smith, T. A. Soares, D. Song, M. Swart, H. L. Taylor, G. S. Thomas,
            V. Tipparaju, D. G. Truhlar, K. Tsemekhman, T. Van Voorhis,
      A. Vazquez-Mayagoitia, P. Verma, O. Villa, A. Vishnu, K. D. Vogiatzis,
        D. Wang, J. H. Weare, M. J. Williamson, T. L. Windus, K. Wolinski,
        A. T. Wong, Q. Wu, C. Yang, Q. Yu, M. Zacharias, Z. Zhang, Y. Zhao,
                                and R. J. Harrison
                        "NWChem: Past, present, and future
                         J. Chem. Phys. 152, 184102 (2020)
                               doi:10.1063/5.0004997

                                      AUTHORS
                                      -------
  E. Apra, E. J. Bylaska, N. Govind, K. Kowalski, M. Valiev, D. Mejia-Rodriguez,
       A. Kunitsa, N. P. Bauman, A. Panyala, W. A. de Jong, T. P. Straatsma,
   H. J. J. van Dam, D. Wang, T. L. Windus, J. Hammond, J. Autschbach, A. Woods,
    K. Bhaskaran-Nair, J. Brabec, K. Lopata, S. A. Fischer, S. Krishnamoorthy,
     M. Jacquelin, W. Ma, M. Klemm, O. Villa, Y. Chen, V. Anisimov, F. Aquino,
     S. Hirata, M. T. Hackler, E. Hermes, L. Jensen, J. E. Moore, J. C. Becca,
      V. Konjkov, T. Risthaus, M. Malagoli, A. Marenich, A. Otero-de-la-Roza,
        J. Mullin, P. Nichols, R. Peverati, J. Pittner, Y. Zhao, P.-D. Fan,
        A. Fonari, M. J. Williamson, R. J. Harrison, J. R. Rehr, M. Dupuis,
     D. Silverstein, D. M. A. Smith, J. Nieplocha, V. Tipparaju, M. Krishnan,
     B. E. Van Kuiken, A. Vazquez-Mayagoitia, M. Swart, Q. Wu, T. Van Voorhis,
     A. A. Auer, M. Nooijen, L. D. Crosby, E. Brown, G. Cisneros, G. I. Fann,
   H. Fruchtl, J. Garza, K. Hirao, R. A. Kendall, J. A. Nichols, K. Tsemekhman,
    K. Wolinski, J. Anchell, D. E. Bernholdt, P. Borowski, T. Clark, D. Clerc,
   H. Dachsel, M. J. O. Deegan, K. Dyall, D. Elwood, E. Glendening, M. Gutowski,
   A. C. Hess, J. Jaffe, B. G. Johnson, J. Ju, R. Kobayashi, R. Kutteh, Z. Lin,
   R. Littlefield, X. Long, B. Meng, T. Nakajima, S. Niu, L. Pollack, M. Rosing,
   K. Glaesemann, G. Sandrone, M. Stave, H. Taylor, G. Thomas, J. H. van Lenthe,
                               A. T. Wong, Z. Zhang.

 Total times  cpu:       11.5s     wall:       11.5s
