 argument  1 = ch3fcl.nw



============================== echo of input deck ==============================


echo
start ch3fcl_zts_dat
charge -1
geometry geometry nocenter
  symmetry c1
C                      0.00000000     0.00000000     1.64319769
F                     -0.00000000     0.00000000     3.02620684
H                      0.72524782     0.72524782     1.28368498
H                      0.26545913    -0.99070694     1.28368498
H                     -0.99070694     0.26545913     1.28368498
Cl                    -0.00000000    -0.00000000    -2.35680231
end
geometry endgeom nocenter
  symmetry c1
C                      0.00000000     0.00000000    -0.46666185
F                      0.00000000     0.00000000     3.53333815
H                      0.72617942     0.72617942    -0.12259296
H                      0.26580012    -0.99197954    -0.12259296
H                     -0.99197954     0.26580012    -0.12259296
Cl                     0.00000000     0.00000000    -2.27809744
end
basis
  * library cc-pvdz
end
print low
string
  tol  0.001d0
  stepsize 0.20d0
  nbeads 24
  maxiter 100
  interpol 1
end
# We have to freeze the end points since this reaction has no barrier
set string:freezen .true.
set string:freeze1 .true.
task string scf
================================================================================


                                         
                                         


             Northwest Computational Chemistry Package (NWChem) 7.0.1
             --------------------------------------------------------


                    Environmental Molecular Sciences Laboratory
                       Pacific Northwest National Laboratory
                                Richland, WA 99352

                              Copyright (c) 1994-2020
                       Pacific Northwest National Laboratory
                            Battelle Memorial Institute

             NWChem is an open-source computational chemistry package
                        distributed under the terms of the
                      Educational Community License (ECL) 2.0
             A copy of the license is included with this distribution
                              in the LICENSE.TXT file

                                  ACKNOWLEDGMENT
                                  --------------

            This software and its documentation were developed at the
            EMSL at Pacific Northwest National Laboratory, a multiprogram
            national laboratory, operated for the U.S. Department of Energy
            by Battelle under Contract Number DE-AC05-76RL01830. Support
            for this work was provided by the Department of Energy Office
            of Biological and Environmental Research, Office of Basic
            Energy Sciences, and the Office of Advanced Scientific Computing.


           Job information
           ---------------

    hostname        = hpc1.csc.bnl.gov
    program         = ../../../bin/LINUX64/nwchem
    date            = Wed Jul  5 17:20:13 2023

    compiled        = Wed_Jun_28_15:57:17_2023
    source          = /home/hvandam/nwchem-1-srp-hpc
    nwchem branch   = 7.0.0
    nwchem revision = nwchem_on_git-4138-g6a87d17
    ga revision     = 5.8.1
    use scalapack   = F
    input           = ch3fcl.nw
    prefix          = ch3fcl_zts_dat.
    data base       = ./ch3fcl_zts_dat.db
    status          = startup
    nproc           =        1
    time left       =     -1s



           Memory information
           ------------------

    heap     =     217728 doubles =      1.7 Mbytes
    stack    =  178884391 doubles =   1364.8 Mbytes
    global   =  357768789 doubles =   2729.6 Mbytes (distinct from heap & stack)
    total    =  536870908 doubles =   4096.0 Mbytes
    verify   = yes
    hardfail = no 


           Directory information
           ---------------------

  0 permanent = .
  0 scratch   = .




                                NWChem Input Module
                                -------------------



 Scaling coordinates for geometry "geometry" by  1.889725989
 (inverse scale =  0.529177249)

 Turning off AUTOSYM since
 SYMMETRY directive was detected!


          ------
          auto-z
          ------
  autoz: The atoms group into disjoint clusters
 cluster   1:    1    2    3    4    5
 cluster   2:    6
 Connecting clusters   1   2 via atoms    4    6 r = 3.78
  autoz: regenerating connections with new bonds
  no constraints, skipping    0.0000000000000000     
  no constraints, skipping    0.0000000000000000     


                             Geometry "geometry" -> ""
                             -------------------------

 Output coordinates in angstroms (scale by  1.889725989 to convert to a.u.)

  No.       Tag          Charge          X              Y              Z
 ---- ---------------- ---------- -------------- -------------- --------------
    1 C                    6.0000     0.00000000     0.00000000     1.64319769
    2 F                    9.0000     0.00000000     0.00000000     3.02620684
    3 H                    1.0000     0.72524782     0.72524782     1.28368498
    4 H                    1.0000     0.26545913    -0.99070694     1.28368498
    5 H                    1.0000    -0.99070694     0.26545913     1.28368498
    6 Cl                  17.0000     0.00000000     0.00000000    -2.35680231

      Atomic Mass 
      ----------- 

      C                 12.000000
      F                 18.998400
      H                  1.007825
      Cl                34.968850


 Effective nuclear repulsion energy (a.u.)      73.0561430342

            Nuclear Dipole moment (a.u.) 
            ----------------------------
        X                 Y               Z
 ---------------- ---------------- ----------------
     0.0000000189     0.0000000189     1.6638345123



                                Z-matrix (autoz)
                                -------- 

 Units are Angstrom for bonds and degrees for angles

      Type          Name      I     J     K     L     M      Value
      ----------- --------  ----- ----- ----- ----- ----- ----------
    1 Stretch                  1     2                       1.38301
    2 Stretch                  1     3                       1.08684
    3 Stretch                  1     4                       1.08684
    4 Stretch                  1     5                       1.08684
    5 Stretch                  4     6                       3.78221
    6 Bend                     1     4     6                93.58216
    7 Bend                     2     1     3               109.31658
    8 Bend                     2     1     4               109.31659
    9 Bend                     2     1     5               109.31659
   10 Bend                     3     1     4               109.62541
   11 Bend                     3     1     5               109.62541
   12 Bend                     4     1     5               109.62541
   13 Torsion                  2     1     4     6        -180.00000
   14 Torsion                  3     1     4     6         -60.18984
   15 Torsion                  5     1     4     6          60.18984


            XYZ format geometry
            -------------------
     6
 geometry
 C                     0.00000000     0.00000000     1.64319769
 F                     0.00000000     0.00000000     3.02620684
 H                     0.72524782     0.72524782     1.28368498
 H                     0.26545913    -0.99070694     1.28368498
 H                    -0.99070694     0.26545913     1.28368498
 Cl                    0.00000000     0.00000000    -2.35680231

 ==============================================================================
                                internuclear distances
 ------------------------------------------------------------------------------
       center one      |      center two      | atomic units |  angstroms
 ------------------------------------------------------------------------------
    2 F                |   1 C                |     2.61351  |     1.38301
    3 H                |   1 C                |     2.05383  |     1.08684
    4 H                |   1 C                |     2.05383  |     1.08684
    5 H                |   1 C                |     2.05383  |     1.08684
 ------------------------------------------------------------------------------
                         number of included internuclear distances:          4
 ==============================================================================



 ==============================================================================
                                 internuclear angles
 ------------------------------------------------------------------------------
        center 1       |       center 2       |       center 3       |  degrees
 ------------------------------------------------------------------------------
    2 F                |   1 C                |   3 H                |   109.32
    2 F                |   1 C                |   4 H                |   109.32
    2 F                |   1 C                |   5 H                |   109.32
    3 H                |   1 C                |   4 H                |   109.63
    3 H                |   1 C                |   5 H                |   109.63
    4 H                |   1 C                |   5 H                |   109.63
 ------------------------------------------------------------------------------
                            number of included internuclear angles:          6
 ==============================================================================




 Scaling coordinates for geometry "endgeom" by  1.889725989
 (inverse scale =  0.529177249)

 Turning off AUTOSYM since
 SYMMETRY directive was detected!


          ------
          auto-z
          ------
  autoz: The atoms group into disjoint clusters
 cluster   1:    1    3    4    5    6
 cluster   2:    2
 Clusters   1   2 closest atoms are    3    2 r = 3.80 ... close but too far?
     1 autoz failed with cvr_scaling = 1.2 changing to 1.3
  autoz: The atoms group into disjoint clusters
 cluster   1:    1    3    4    5    6
 cluster   2:    2
 Clusters   1   2 closest atoms are    3    2 r = 3.80 ... close but too far?
     2 autoz failed with cvr_scaling = 1.3 changing to 1.4
  autoz: The atoms group into disjoint clusters
 cluster   1:    1    3    4    5    6
 cluster   2:    2
 Connecting clusters   1   2 via atoms    3    2 r = 3.80
  autoz: regenerating connections with new bonds
  no constraints, skipping    0.0000000000000000     
  no constraints, skipping    0.0000000000000000     


                         Geometry "endgeom" -> "        "
                         --------------------------------

 Output coordinates in angstroms (scale by  1.889725989 to convert to a.u.)

  No.       Tag          Charge          X              Y              Z
 ---- ---------------- ---------- -------------- -------------- --------------
    1 C                    6.0000     0.00000000     0.00000000    -0.46666185
    2 F                    9.0000     0.00000000     0.00000000     3.53333815
    3 H                    1.0000     0.72617942     0.72617942    -0.12259296
    4 H                    1.0000     0.26580012    -0.99197954    -0.12259296
    5 H                    1.0000    -0.99197954     0.26580012    -0.12259296
    6 Cl                  17.0000     0.00000000     0.00000000    -2.27809744

      Atomic Mass 
      ----------- 

      C                 12.000000
      F                 18.998400
      H                  1.007825
      Cl                34.968850


 Effective nuclear repulsion energy (a.u.)      75.6258752743

            Nuclear Dipole moment (a.u.) 
            ----------------------------
        X                 Y               Z
 ---------------- ---------------- ----------------
    -0.0000000000    -0.0000000000   -19.0774700331



                                Z-matrix (autoz)
                                -------- 

 Units are Angstrom for bonds and degrees for angles

      Type          Name      I     J     K     L     M      Value
      ----------- --------  ----- ----- ----- ----- ----- ----------
    1 Stretch                  1     3                       1.08308
    2 Stretch                  1     4                       1.08308
    3 Stretch                  1     5                       1.08308
    4 Stretch                  1     6                       1.81144
    5 Stretch                  2     3                       3.79743
    6 Bend                     1     3     2                92.83214
    7 Bend                     3     1     4               110.40305
    8 Bend                     3     1     5               110.40305
    9 Bend                     3     1     6               108.52251
   10 Bend                     4     1     5               110.40305
   11 Bend                     4     1     6               108.52251
   12 Bend                     5     1     6               108.52251
   13 Torsion                  2     3     1     4         -61.17896
   14 Torsion                  2     3     1     5          61.17896
   15 Torsion                  2     3     1     6        -180.00000


            XYZ format geometry
            -------------------
     6
 endgeom
 C                     0.00000000     0.00000000    -0.46666185
 F                     0.00000000     0.00000000     3.53333815
 H                     0.72617942     0.72617942    -0.12259296
 H                     0.26580012    -0.99197954    -0.12259296
 H                    -0.99197954     0.26580012    -0.12259296
 Cl                    0.00000000     0.00000000    -2.27809744

 ==============================================================================
                                internuclear distances
 ------------------------------------------------------------------------------
       center one      |      center two      | atomic units |  angstroms
 ------------------------------------------------------------------------------
    3 H                |   1 C                |     2.04672  |     1.08308
    4 H                |   1 C                |     2.04672  |     1.08308
    5 H                |   1 C                |     2.04672  |     1.08308
    6 Cl               |   1 C                |     3.42312  |     1.81144
 ------------------------------------------------------------------------------
                         number of included internuclear distances:          4
 ==============================================================================



 ==============================================================================
                                 internuclear angles
 ------------------------------------------------------------------------------
        center 1       |       center 2       |       center 3       |  degrees
 ------------------------------------------------------------------------------
    3 H                |   1 C                |   4 H                |   110.40
    3 H                |   1 C                |   5 H                |   110.40
    3 H                |   1 C                |   6 Cl               |   108.52
    4 H                |   1 C                |   5 H                |   110.40
    4 H                |   1 C                |   6 Cl               |   108.52
    5 H                |   1 C                |   6 Cl               |   108.52
 ------------------------------------------------------------------------------
                            number of included internuclear angles:          6
 ==============================================================================





 Summary of "ao basis" -> "" (cartesian)
 ------------------------------------------------------------------------------
       Tag                 Description            Shells   Functions and Types
 ---------------- ------------------------------  ------  ---------------------
 *                          cc-pvdz                   on all atoms 


@zts
@zts String method.
@zts Temperature          =   0.00000
@zts Covergence Tolerance =   0.00100
@zts Step Size            =   0.20000
@zts Maximum Time Steps   =       100
@zts Number of replicas   =        24
@zts Number of histories  =         3
@zts algorithm            = 3 (QN Fixed Point - Damped Verlet)
@zts String Interpolator  =         1
@zts First Replica        = frozen
@zts Last Replica         = frozen
@zts
@zts  Step       xrms       xmax        E start       E middle          E end          E max      E average Walltime
 string: running bead                     1
                      Basis "ao basis" -> "ao basis" (cartesian)
                      -----
  C (Carbon)
  ----------
            Exponent  Coefficients 
       -------------- ---------------------------------------------------------
  1 S  6.66500000E+03  0.000692
  1 S  1.00000000E+03  0.005329
  1 S  2.28000000E+02  0.027077
  1 S  6.47100000E+01  0.101718
  1 S  2.10600000E+01  0.274740
  1 S  7.49500000E+00  0.448564
  1 S  2.79700000E+00  0.285074
  1 S  5.21500000E-01  0.015204

  2 S  6.66500000E+03 -0.000146
  2 S  1.00000000E+03 -0.001154
  2 S  2.28000000E+02 -0.005725
  2 S  6.47100000E+01 -0.023312
  2 S  2.10600000E+01 -0.063955
  2 S  7.49500000E+00 -0.149981
  2 S  2.79700000E+00 -0.127262
  2 S  5.21500000E-01  0.544529

  3 S  1.59600000E-01  1.000000

  4 P  9.43900000E+00  0.038109
  4 P  2.00200000E+00  0.209480
  4 P  5.45600000E-01  0.508557

  5 P  1.51700000E-01  1.000000

  6 D  5.50000000E-01  1.000000

  F (Fluorine)
  ------------
            Exponent  Coefficients 
       -------------- ---------------------------------------------------------
  1 S  1.47100000E+04  0.000721
  1 S  2.20700000E+03  0.005553
  1 S  5.02800000E+02  0.028267
  1 S  1.42600000E+02  0.106444
  1 S  4.64700000E+01  0.286814
  1 S  1.67000000E+01  0.448641
  1 S  6.35600000E+00  0.264761
  1 S  1.31600000E+00  0.015333

  2 S  1.47100000E+04 -0.000165
  2 S  2.20700000E+03 -0.001308
  2 S  5.02800000E+02 -0.006495
  2 S  1.42600000E+02 -0.026691
  2 S  4.64700000E+01 -0.073690
  2 S  1.67000000E+01 -0.170776
  2 S  6.35600000E+00 -0.112327
  2 S  1.31600000E+00  0.562814

  3 S  3.89700000E-01  1.000000

  4 P  2.26700000E+01  0.044878
  4 P  4.97700000E+00  0.235718
  4 P  1.34700000E+00  0.508521

  5 P  3.47100000E-01  1.000000

  6 D  1.64000000E+00  1.000000

  H (Hydrogen)
  ------------
            Exponent  Coefficients 
       -------------- ---------------------------------------------------------
  1 S  1.30100000E+01  0.019685
  1 S  1.96200000E+00  0.137977
  1 S  4.44600000E-01  0.478148

  2 S  1.22000000E-01  1.000000

  3 P  7.27000000E-01  1.000000

  Cl (Chlorine)
  -------------
            Exponent  Coefficients 
       -------------- ---------------------------------------------------------
  1 S  1.27900000E+05  0.000241
  1 S  1.91700000E+04  0.001871
  1 S  4.36300000E+03  0.009708
  1 S  1.23600000E+03  0.039315
  1 S  4.03600000E+02  0.125932
  1 S  1.45700000E+02  0.299341
  1 S  5.68100000E+01  0.421886
  1 S  2.32300000E+01  0.237201
  1 S  6.64400000E+00  0.019153
  1 S  2.57500000E+00 -0.003348
  1 S  5.37100000E-01  0.000930

  2 S  1.27900000E+05 -0.000068
  2 S  1.91700000E+04 -0.000522
  2 S  4.36300000E+03 -0.002765
  2 S  1.23600000E+03 -0.011154
  2 S  4.03600000E+02 -0.038592
  2 S  1.45700000E+02 -0.099485
  2 S  5.68100000E+01 -0.201392
  2 S  2.32300000E+01 -0.130313
  2 S  6.64400000E+00  0.509443
  2 S  2.57500000E+00  0.610725
  2 S  5.37100000E-01  0.042155

  3 S  1.27900000E+05  0.000020
  3 S  1.91700000E+04  0.000158
  3 S  4.36300000E+03  0.000834
  3 S  1.23600000E+03  0.003399
  3 S  4.03600000E+02  0.011674
  3 S  1.45700000E+02  0.030962
  3 S  5.68100000E+01  0.062953
  3 S  2.32300000E+01  0.046026
  3 S  6.64400000E+00 -0.219312
  3 S  2.57500000E+00 -0.408773
  3 S  5.37100000E-01  0.638465

  4 S  1.93800000E-01  1.000000

  5 P  4.17600000E+02  0.005260
  5 P  9.83300000E+01  0.039833
  5 P  3.10400000E+01  0.164655
  5 P  1.11900000E+01  0.387322
  5 P  4.24900000E+00  0.457072
  5 P  1.62400000E+00  0.151636
  5 P  5.32200000E-01  0.001816

  6 P  4.17600000E+02 -0.001436
  6 P  9.83300000E+01 -0.010780
  6 P  3.10400000E+01 -0.047008
  6 P  1.11900000E+01 -0.111030
  6 P  4.24900000E+00 -0.153275
  6 P  1.62400000E+00  0.089461
  6 P  5.32200000E-01  0.579444

  7 P  1.62000000E-01  1.000000

  8 D  6.00000000E-01  1.000000



 Summary of "ao basis" -> "ao basis" (cartesian)
 ------------------------------------------------------------------------------
       Tag                 Description            Shells   Functions and Types
 ---------------- ------------------------------  ------  ---------------------
 C                          cc-pvdz                  6       15   3s2p1d
 F                          cc-pvdz                  6       15   3s2p1d
 H                          cc-pvdz                  3        5   2s1p
 Cl                         cc-pvdz                  8       19   4s3p1d


                                 NWChem SCF Module
                                 -----------------



  ao basis        = "ao basis"
  functions       =    64
  atoms           =     6
  closed shells   =    18
  open shells     =     0
  charge          =  -1.00
  wavefunction    = RHF 
  input vectors   = atomic
  output vectors  = ./ch3fcl_zts_dat.movecs
  use symmetry    = F
  symmetry adapt  = F


 Forming initial guess at       0.2s


 Starting SCF solution at       1.1s



       Final RHF  results 
       ------------------ 

         Total SCF energy =   -598.601064103230
      One-electron energy =   -981.620415093767
      Two-electron energy =    309.963207956340
 Nuclear repulsion energy =     73.056143034197

        Time for solution =      1.6s


                              NWChem Gradients Module
                              -----------------------



                         RHF ENERGY GRADIENTS

    atom               coordinates                        gradient
                 x          y          z           x          y          z
   1 C       0.000000   0.000000   3.105193    0.000000   0.000000   0.003542
   2 F       0.000000   0.000000   5.718702   -0.000000  -0.000000   0.000006
   3 H       1.370520   1.370520   2.425813    0.000001   0.000001   0.000001
   4 H       0.501645  -1.872165   2.425813    0.000000  -0.000001   0.000001
   5 H      -1.872165   0.501645   2.425813   -0.000001   0.000000   0.000001
   6 Cl      0.000000   0.000000  -4.453711   -0.000000  -0.000000  -0.003552

string: finished bead   1 energy=       -598.601064
 string: running bead                     2
                                 NWChem SCF Module
                                 -----------------



  ao basis        = "ao basis"
  functions       =    64
  atoms           =     6
  closed shells   =    18
  open shells     =     0
  charge          =  -1.00
  wavefunction    = RHF 
  input vectors   = ./ch3fcl_zts_dat.movecs
  output vectors  = ./ch3fcl_zts_dat.movecs
  use symmetry    = F
  symmetry adapt  = F


 Forming initial guess at       7.9s


 Starting SCF solution at       7.9s



       Final RHF  results 
       ------------------ 

         Total SCF energy =   -598.595051039910
      One-electron energy =   -979.113771604039
      Two-electron energy =    308.801950528826
 Nuclear repulsion energy =     71.716770035303

        Time for solution =      1.5s


                              NWChem Gradients Module
                              -----------------------



                         RHF ENERGY GRADIENTS

    atom               coordinates                        gradient
                 x          y          z           x          y          z
   1 C       0.000000   0.000000   3.047273   -0.000000  -0.000000  -0.050410
   2 F       0.000000   0.000000   5.875798    0.000000   0.000000   0.056275
   3 H       1.370596   1.370596   2.425700   -0.003653  -0.003653  -0.000514
   4 H       0.501673  -1.872269   2.425700   -0.001337   0.004990  -0.000514
   5 H      -1.872269   0.501673   2.425700    0.004990  -0.001337  -0.000514
   6 Cl      0.000000   0.000000  -4.331814    0.000000   0.000000  -0.004324

string: finished bead   2 energy=       -598.595051
 string: running bead                     3
                                 NWChem SCF Module
                                 -----------------



  ao basis        = "ao basis"
  functions       =    64
  atoms           =     6
  closed shells   =    18
  open shells     =     0
  charge          =  -1.00
  wavefunction    = RHF 
  input vectors   = ./ch3fcl_zts_dat.movecs
  output vectors  = ./ch3fcl_zts_dat.movecs
  use symmetry    = F
  symmetry adapt  = F


 Forming initial guess at      14.5s


 Starting SCF solution at      14.5s



       Final RHF  results 
       ------------------ 

         Total SCF energy =   -598.580767445422
      One-electron energy =   -977.050598263700
      Two-electron energy =    307.841208899883
 Nuclear repulsion energy =     70.628621918396

        Time for solution =      1.2s


                              NWChem Gradients Module
                              -----------------------



                         RHF ENERGY GRADIENTS

    atom               coordinates                        gradient
                 x          y          z           x          y          z
   1 C       0.000000   0.000000   2.989352    0.000000   0.000000  -0.074538
   2 F       0.000000   0.000000   6.032895   -0.000000  -0.000000   0.081850
   3 H       1.370673   1.370673   2.425587   -0.007631  -0.007631  -0.000709
   4 H       0.501701  -1.872374   2.425587   -0.002793   0.010424  -0.000709
   5 H      -1.872374   0.501701   2.425587    0.010424  -0.002793  -0.000709
   6 Cl      0.000000   0.000000  -4.209918   -0.000000  -0.000000  -0.005187

string: finished bead   3 energy=       -598.580767
 string: running bead                     4
                                 NWChem SCF Module
                                 -----------------



  ao basis        = "ao basis"
  functions       =    64
  atoms           =     6
  closed shells   =    18
  open shells     =     0
  charge          =  -1.00
  wavefunction    = RHF 
  input vectors   = ./ch3fcl_zts_dat.movecs
  output vectors  = ./ch3fcl_zts_dat.movecs
  use symmetry    = F
  symmetry adapt  = F


 Forming initial guess at      20.7s


 Starting SCF solution at      20.7s



       Final RHF  results 
       ------------------ 

         Total SCF energy =   -598.563173229606
      One-electron energy =   -975.364594095065
      Two-electron energy =    307.053559612559
 Nuclear repulsion energy =     69.747861252900

        Time for solution =      1.2s


                              NWChem Gradients Module
                              -----------------------



                         RHF ENERGY GRADIENTS

    atom               coordinates                        gradient
                 x          y          z           x          y          z
   1 C       0.000000   0.000000   2.931432    0.000000   0.000000  -0.082019
   2 F       0.000000   0.000000   6.189992    0.000000   0.000000   0.090534
   3 H       1.370749   1.370749   2.425474   -0.011669  -0.011669  -0.000771
   4 H       0.501729  -1.872478   2.425474   -0.004271   0.015940  -0.000771
   5 H      -1.872478   0.501729   2.425474    0.015940  -0.004271  -0.000771
   6 Cl      0.000000   0.000000  -4.088022   -0.000000  -0.000000  -0.006203

string: finished bead   4 energy=       -598.563173
 string: running bead                     5
                                 NWChem SCF Module
                                 -----------------



  ao basis        = "ao basis"
  functions       =    64
  atoms           =     6
  closed shells   =    18
  open shells     =     0
  charge          =  -1.00
  wavefunction    = RHF 
  input vectors   = ./ch3fcl_zts_dat.movecs
  output vectors  = ./ch3fcl_zts_dat.movecs
  use symmetry    = F
  symmetry adapt  = F


 Forming initial guess at      27.0s


 Starting SCF solution at      27.0s



       Final RHF  results 
       ------------------ 

         Total SCF energy =   -598.545006206181
      One-electron energy =   -974.003014361699
      Two-electron energy =    306.416286210132
 Nuclear repulsion energy =     69.041721945386

        Time for solution =      1.7s


                              NWChem Gradients Module
                              -----------------------



                         RHF ENERGY GRADIENTS

    atom               coordinates                        gradient
                 x          y          z           x          y          z
   1 C       0.000000   0.000000   2.873511   -0.000000  -0.000000  -0.080324
   2 F       0.000000   0.000000   6.347088    0.000000   0.000000   0.090055
   3 H       1.370826   1.370826   2.425361   -0.015603  -0.015603  -0.000780
   4 H       0.501757  -1.872583   2.425361   -0.005711   0.021314  -0.000780
   5 H      -1.872583   0.501757   2.425361    0.021314  -0.005711  -0.000780
   6 Cl      0.000000   0.000000  -3.966126   -0.000000  -0.000000  -0.007392

string: finished bead   5 energy=       -598.545006
 string: running bead                     6
                                 NWChem SCF Module
                                 -----------------



  ao basis        = "ao basis"
  functions       =    64
  atoms           =     6
  closed shells   =    18
  open shells     =     0
  charge          =  -1.00
  wavefunction    = RHF 
  input vectors   = ./ch3fcl_zts_dat.movecs
  output vectors  = ./ch3fcl_zts_dat.movecs
  use symmetry    = F
  symmetry adapt  = F


 Forming initial guess at      33.8s


 Starting SCF solution at      33.8s



       Final RHF  results 
       ------------------ 

         Total SCF energy =   -598.527740402962
      One-electron energy =   -972.923229363668
      Two-electron energy =    305.910116283510
 Nuclear repulsion energy =     68.485372677197

        Time for solution =      1.3s


                              NWChem Gradients Module
                              -----------------------



                         RHF ENERGY GRADIENTS

    atom               coordinates                        gradient
                 x          y          z           x          y          z
   1 C       0.000000   0.000000   2.815590    0.000000   0.000000  -0.073768
   2 F       0.000000   0.000000   6.504185   -0.000000  -0.000000   0.084891
   3 H       1.370902   1.370902   2.425248   -0.019306  -0.019306  -0.000779
   4 H       0.501785  -1.872687   2.425248   -0.007067   0.026373  -0.000779
   5 H      -1.872687   0.501785   2.425248    0.026373  -0.007067  -0.000779
   6 Cl      0.000000   0.000000  -3.844229   -0.000000  -0.000000  -0.008788

string: finished bead   6 energy=       -598.527740
 string: running bead                     7
                                 NWChem SCF Module
                                 -----------------



  ao basis        = "ao basis"
  functions       =    64
  atoms           =     6
  closed shells   =    18
  open shells     =     0
  charge          =  -1.00
  wavefunction    = RHF 
  input vectors   = ./ch3fcl_zts_dat.movecs
  output vectors  = ./ch3fcl_zts_dat.movecs
  use symmetry    = F
  symmetry adapt  = F


 Forming initial guess at      40.1s


 Starting SCF solution at      40.1s



       Final RHF  results 
       ------------------ 

         Total SCF energy =   -598.512120482064
      One-electron energy =   -972.090960251482
      Two-electron energy =    305.519012150851
 Nuclear repulsion energy =     68.059827618567

        Time for solution =      1.6s


                              NWChem Gradients Module
                              -----------------------



                         RHF ENERGY GRADIENTS

    atom               coordinates                        gradient
                 x          y          z           x          y          z
   1 C       0.000000   0.000000   2.757670    0.000000   0.000000  -0.064803
   2 F       0.000000   0.000000   6.661281   -0.000000  -0.000000   0.077611
   3 H       1.370979   1.370979   2.425135   -0.022679  -0.022679  -0.000785
   4 H       0.501813  -1.872792   2.425135   -0.008301   0.030980  -0.000785
   5 H      -1.872792   0.501813   2.425135    0.030980  -0.008301  -0.000785
   6 Cl      0.000000   0.000000  -3.722333   -0.000000  -0.000000  -0.010452

string: finished bead   7 energy=       -598.512120
 string: running bead                     8
                                 NWChem SCF Module
                                 -----------------



  ao basis        = "ao basis"
  functions       =    64
  atoms           =     6
  closed shells   =    18
  open shells     =     0
  charge          =  -1.00
  wavefunction    = RHF 
  input vectors   = ./ch3fcl_zts_dat.movecs
  output vectors  = ./ch3fcl_zts_dat.movecs
  use symmetry    = F
  symmetry adapt  = F


 Forming initial guess at      46.7s


 Starting SCF solution at      46.7s



       Final RHF  results 
       ------------------ 

         Total SCF energy =   -598.498477814314
      One-electron energy =   -971.478590440023
      Two-electron energy =    305.229589644621
 Nuclear repulsion energy =     67.750522981088

        Time for solution =      1.5s


                              NWChem Gradients Module
                              -----------------------



                         RHF ENERGY GRADIENTS

    atom               coordinates                        gradient
                 x          y          z           x          y          z
   1 C       0.000000   0.000000   2.699749    0.000000   0.000000  -0.054795
   2 F       0.000000   0.000000   6.818378    0.000000   0.000000   0.069732
   3 H       1.371055   1.371055   2.425022   -0.025631  -0.025631  -0.000844
   4 H       0.501841  -1.872897   2.425022   -0.009382   0.035013  -0.000844
   5 H      -1.872897   0.501841   2.425022    0.035013  -0.009382  -0.000844
   6 Cl      0.000000   0.000000  -3.600437   -0.000000  -0.000000  -0.012404

string: finished bead   8 energy=       -598.498478
 string: running bead                     9
                                 NWChem SCF Module
                                 -----------------



  ao basis        = "ao basis"
  functions       =    64
  atoms           =     6
  closed shells   =    18
  open shells     =     0
  charge          =  -1.00
  wavefunction    = RHF 
  input vectors   = ./ch3fcl_zts_dat.movecs
  output vectors  = ./ch3fcl_zts_dat.movecs
  use symmetry    = F
  symmetry adapt  = F


 Forming initial guess at      53.2s


 Starting SCF solution at      53.2s



       Final RHF  results 
       ------------------ 

         Total SCF energy =   -598.486919461094
      One-electron energy =   -971.064682235281
      Two-electron energy =    305.031432985166
 Nuclear repulsion energy =     67.546329789021

        Time for solution =      1.3s


                              NWChem Gradients Module
                              -----------------------



                         RHF ENERGY GRADIENTS

    atom               coordinates                        gradient
                 x          y          z           x          y          z
   1 C       0.000000   0.000000   2.641829   -0.000000  -0.000000  -0.044442
   2 F       0.000000   0.000000   6.975475    0.000000   0.000000   0.061992
   3 H       1.371132   1.371132   2.424910   -0.028099  -0.028099  -0.000966
   4 H       0.501869  -1.873001   2.424910   -0.010285   0.038385  -0.000966
   5 H      -1.873001   0.501869   2.424910    0.038385  -0.010285  -0.000966
   6 Cl      0.000000   0.000000  -3.478541   -0.000000  -0.000000  -0.014652

string: finished bead   9 energy=       -598.486919
 string: running bead                    10
                                 NWChem SCF Module
                                 -----------------



  ao basis        = "ao basis"
  functions       =    64
  atoms           =     6
  closed shells   =    18
  open shells     =     0
  charge          =  -1.00
  wavefunction    = RHF 
  input vectors   = ./ch3fcl_zts_dat.movecs
  output vectors  = ./ch3fcl_zts_dat.movecs
  use symmetry    = F
  symmetry adapt  = F


 Forming initial guess at      59.5s


 Starting SCF solution at      59.5s



       Final RHF  results 
       ------------------ 

         Total SCF energy =   -598.477436992395
      One-electron energy =   -970.833105357496
      Two-electron energy =    304.916807834644
 Nuclear repulsion energy =     67.438860530457

        Time for solution =      1.3s


                              NWChem Gradients Module
                              -----------------------



                         RHF ENERGY GRADIENTS

    atom               coordinates                        gradient
                 x          y          z           x          y          z
   1 C       0.000000   0.000000   2.583908    0.000000   0.000000  -0.034047
   2 F       0.000000   0.000000   7.132571   -0.000000  -0.000000   0.054786
   3 H       1.371209   1.371209   2.424797   -0.030023  -0.030023  -0.001166
   4 H       0.501897  -1.873106   2.424797   -0.010989   0.041013  -0.001166
   5 H      -1.873106   0.501897   2.424797    0.041013  -0.010989  -0.001166
   6 Cl      0.000000   0.000000  -3.356644   -0.000000  -0.000000  -0.017240

string: finished bead  10 energy=       -598.477437
 string: running bead                    11
                                 NWChem SCF Module
                                 -----------------



  ao basis        = "ao basis"
  functions       =    64
  atoms           =     6
  closed shells   =    18
  open shells     =     0
  charge          =  -1.00
  wavefunction    = RHF 
  input vectors   = ./ch3fcl_zts_dat.movecs
  output vectors  = ./ch3fcl_zts_dat.movecs
  use symmetry    = F
  symmetry adapt  = F


 Forming initial guess at      65.9s


 Starting SCF solution at      65.9s



       Final RHF  results 
       ------------------ 

         Total SCF energy =   -598.469969428623
      One-electron energy =   -970.772313572721
      Two-electron energy =    304.880364869962
 Nuclear repulsion energy =     67.421979274136

        Time for solution =      1.3s


                              NWChem Gradients Module
                              -----------------------



                         RHF ENERGY GRADIENTS

    atom               coordinates                        gradient
                 x          y          z           x          y          z
   1 C       0.000000   0.000000   2.525987   -0.000000  -0.000000  -0.023781
   2 F       0.000000   0.000000   7.289668   -0.000000  -0.000000   0.048257
   3 H       1.371285   1.371285   2.424684   -0.031354  -0.031354  -0.001436
   4 H       0.501925  -1.873210   2.424684   -0.011476   0.042830  -0.001436
   5 H      -1.873210   0.501925   2.424684    0.042830  -0.011476  -0.001436
   6 Cl      0.000000   0.000000  -3.234748    0.000000   0.000000  -0.020169

string: finished bead  11 energy=       -598.469969
 string: running bead                    12
                                 NWChem SCF Module
                                 -----------------



  ao basis        = "ao basis"
  functions       =    64
  atoms           =     6
  closed shells   =    18
  open shells     =     0
  charge          =  -1.00
  wavefunction    = RHF 
  input vectors   = ./ch3fcl_zts_dat.movecs
  output vectors  = ./ch3fcl_zts_dat.movecs
  use symmetry    = F
  symmetry adapt  = F


 Forming initial guess at      72.3s


 Starting SCF solution at      72.3s



       Final RHF  results 
       ------------------ 

         Total SCF energy =   -598.464440039701
      One-electron energy =   -970.874945158237
      Two-electron energy =    304.919048387535
 Nuclear repulsion energy =     67.491456731002

        Time for solution =      1.3s


                              NWChem Gradients Module
                              -----------------------



                         RHF ENERGY GRADIENTS

    atom               coordinates                        gradient
                 x          y          z           x          y          z
   1 C       0.000000   0.000000   2.468067   -0.000000  -0.000000  -0.013691
   2 F       0.000000   0.000000   7.446764   -0.000000  -0.000000   0.042422
   3 H       1.371362   1.371362   2.424571   -0.032060  -0.032060  -0.001766
   4 H       0.501953  -1.873315   2.424571   -0.011735   0.043794  -0.001766
   5 H      -1.873315   0.501953   2.424571    0.043794  -0.011735  -0.001766
   6 Cl      0.000000   0.000000  -3.112852   -0.000000  -0.000000  -0.023434

string: finished bead  12 energy=       -598.464440
 string: running bead                    13
                                 NWChem SCF Module
                                 -----------------



  ao basis        = "ao basis"
  functions       =    64
  atoms           =     6
  closed shells   =    18
  open shells     =     0
  charge          =  -1.00
  wavefunction    = RHF 
  input vectors   = ./ch3fcl_zts_dat.movecs
  output vectors  = ./ch3fcl_zts_dat.movecs
  use symmetry    = F
  symmetry adapt  = F


 Forming initial guess at      78.8s


 Starting SCF solution at      78.8s



       Final RHF  results 
       ------------------ 

         Total SCF energy =   -598.460773482729
      One-electron energy =   -971.136987850485
      Two-electron energy =    305.031482412045
 Nuclear repulsion energy =     67.644731955711

        Time for solution =      1.5s


                              NWChem Gradients Module
                              -----------------------



                         RHF ENERGY GRADIENTS

    atom               coordinates                        gradient
                 x          y          z           x          y          z
   1 C       0.000000   0.000000   2.410146    0.000000   0.000000  -0.003813
   2 F       0.000000   0.000000   7.603861    0.000000   0.000000   0.037214
   3 H       1.371438   1.371438   2.424458   -0.032126  -0.032126  -0.002126
   4 H       0.501981  -1.873419   2.424458   -0.011759   0.043885  -0.002126
   5 H      -1.873419   0.501981   2.424458    0.043885  -0.011759  -0.002126
   6 Cl      0.000000   0.000000  -2.990956   -0.000000  -0.000000  -0.027024

string: finished bead  13 energy=       -598.460773
 string: running bead                    14
                                 NWChem SCF Module
                                 -----------------



  ao basis        = "ao basis"
  functions       =    64
  atoms           =     6
  closed shells   =    18
  open shells     =     0
  charge          =  -1.00
  wavefunction    = RHF 
  input vectors   = ./ch3fcl_zts_dat.movecs
  output vectors  = ./ch3fcl_zts_dat.movecs
  use symmetry    = F
  symmetry adapt  = F


 Forming initial guess at      85.6s


 Starting SCF solution at      85.6s



       Final RHF  results 
       ------------------ 

         Total SCF energy =   -598.458899073726
      One-electron energy =   -971.557624321972
      Two-electron energy =    305.217969610129
 Nuclear repulsion energy =     67.880755638116

        Time for solution =      1.6s


                              NWChem Gradients Module
                              -----------------------



                         RHF ENERGY GRADIENTS

    atom               coordinates                        gradient
                 x          y          z           x          y          z
   1 C       0.000000   0.000000   2.352226    0.000000   0.000000   0.005806
   2 F       0.000000   0.000000   7.760958   -0.000000  -0.000000   0.032533
   3 H       1.371515   1.371515   2.424345   -0.031553  -0.031553  -0.002485
   4 H       0.502009  -1.873524   2.424345   -0.011549   0.043102  -0.002485
   5 H      -1.873524   0.502009   2.424345    0.043102  -0.011549  -0.002485
   6 Cl      0.000000   0.000000  -2.869059    0.000000   0.000000  -0.030885

string: finished bead  14 energy=       -598.458899
 string: running bead                    15
                                 NWChem SCF Module
                                 -----------------



  ao basis        = "ao basis"
  functions       =    64
  atoms           =     6
  closed shells   =    18
  open shells     =     0
  charge          =  -1.00
  wavefunction    = RHF 
  input vectors   = ./ch3fcl_zts_dat.movecs
  output vectors  = ./ch3fcl_zts_dat.movecs
  use symmetry    = F
  symmetry adapt  = F


 Forming initial guess at      92.4s


 Starting SCF solution at      92.4s



       Final RHF  results 
       ------------------ 

         Total SCF energy =   -598.458746463256
      One-electron energy =   -972.138968006755
      Two-electron energy =    305.480322561887
 Nuclear repulsion energy =     68.199898981612

        Time for solution =      1.3s


                              NWChem Gradients Module
                              -----------------------



                         RHF ENERGY GRADIENTS

    atom               coordinates                        gradient
                 x          y          z           x          y          z
   1 C       0.000000   0.000000   2.294305    0.000000   0.000000   0.015023
   2 F       0.000000   0.000000   7.918054    0.000000   0.000000   0.028341
   3 H       1.371591   1.371591   2.424232   -0.030358  -0.030358  -0.002813
   4 H       0.502037  -1.873628   2.424232   -0.011112   0.041470  -0.002813
   5 H      -1.873628   0.502037   2.424232    0.041470  -0.011112  -0.002813
   6 Cl      0.000000   0.000000  -2.747163    0.000000   0.000000  -0.034927

string: finished bead  15 energy=       -598.458746
 string: running bead                    16
                                 NWChem SCF Module
                                 -----------------



  ao basis        = "ao basis"
  functions       =    64
  atoms           =     6
  closed shells   =    18
  open shells     =     0
  charge          =  -1.00
  wavefunction    = RHF 
  input vectors   = ./ch3fcl_zts_dat.movecs
  output vectors  = ./ch3fcl_zts_dat.movecs
  use symmetry    = F
  symmetry adapt  = F


 Forming initial guess at      99.0s


 Starting SCF solution at      99.0s



       Final RHF  results 
       ------------------ 

         Total SCF energy =   -598.460238418122
      One-electron energy =   -972.885921546877
      Two-electron energy =    305.821764454959
 Nuclear repulsion energy =     68.603918673795

        Time for solution =      1.6s


                              NWChem Gradients Module
                              -----------------------



                         RHF ENERGY GRADIENTS

    atom               coordinates                        gradient
                 x          y          z           x          y          z
   1 C       0.000000   0.000000   2.236385   -0.000000  -0.000000   0.023701
   2 F       0.000000   0.000000   8.075151    0.000000   0.000000   0.024550
   3 H       1.371668   1.371668   2.424119   -0.028573  -0.028573  -0.003075
   4 H       0.502065  -1.873733   2.424119   -0.010459   0.039032  -0.003075
   5 H      -1.873733   0.502065   2.424119    0.039032  -0.010459  -0.003075
   6 Cl      0.000000   0.000000  -2.625267    0.000000   0.000000  -0.039025

string: finished bead  16 energy=       -598.460238
 string: running bead                    17
                                 NWChem SCF Module
                                 -----------------



  ao basis        = "ao basis"
  functions       =    64
  atoms           =     6
  closed shells   =    18
  open shells     =     0
  charge          =  -1.00
  wavefunction    = RHF 
  input vectors   = ./ch3fcl_zts_dat.movecs
  output vectors  = ./ch3fcl_zts_dat.movecs
  use symmetry    = F
  symmetry adapt  = F


 Forming initial guess at     106.0s


 Starting SCF solution at     106.0s



       Final RHF  results 
       ------------------ 

         Total SCF energy =   -598.463278352917
      One-electron energy =   -973.806199625711
      Two-electron energy =    306.246947784855
 Nuclear repulsion energy =     69.095973487939

        Time for solution =      1.7s


                              NWChem Gradients Module
                              -----------------------



                         RHF ENERGY GRADIENTS

    atom               coordinates                        gradient
                 x          y          z           x          y          z
   1 C       0.000000   0.000000   2.178464   -0.000000  -0.000000   0.031643
   2 F       0.000000   0.000000   8.232247   -0.000000  -0.000000   0.021064
   3 H       1.371744   1.371744   2.424006   -0.026247  -0.026247  -0.003234
   4 H       0.502093  -1.873838   2.424006   -0.009607   0.035854  -0.003233
   5 H      -1.873838   0.502093   2.424006    0.035854  -0.009607  -0.003233
   6 Cl      0.000000   0.000000  -2.503371    0.000000   0.000000  -0.043007

string: finished bead  17 energy=       -598.463278
 string: running bead                    18
                                 NWChem SCF Module
                                 -----------------



  ao basis        = "ao basis"
  functions       =    64
  atoms           =     6
  closed shells   =    18
  open shells     =     0
  charge          =  -1.00
  wavefunction    = RHF 
  input vectors   = ./ch3fcl_zts_dat.movecs
  output vectors  = ./ch3fcl_zts_dat.movecs
  use symmetry    = F
  symmetry adapt  = F


 Forming initial guess at     113.0s


 Starting SCF solution at     113.0s



       Final RHF  results 
       ------------------ 

         Total SCF energy =   -598.467729575416
      One-electron energy =   -974.910319556311
      Two-electron energy =    306.761897640718
 Nuclear repulsion energy =     69.680692340177

        Time for solution =      1.6s


                              NWChem Gradients Module
                              -----------------------



                         RHF ENERGY GRADIENTS

    atom               coordinates                        gradient
                 x          y          z           x          y          z
   1 C       0.000000   0.000000   2.120543    0.000000   0.000000   0.038473
   2 F       0.000000   0.000000   8.389344   -0.000000  -0.000000   0.017926
   3 H       1.371821   1.371821   2.423893   -0.023426  -0.023426  -0.003278
   4 H       0.502121  -1.873942   2.423893   -0.008574   0.032000  -0.003278
   5 H      -1.873942   0.502121   2.423893    0.032000  -0.008574  -0.003278
   6 Cl      0.000000   0.000000  -2.381475   -0.000000  -0.000000  -0.046564

string: finished bead  18 energy=       -598.467730
 string: running bead                    19
                                 NWChem SCF Module
                                 -----------------



  ao basis        = "ao basis"
  functions       =    64
  atoms           =     6
  closed shells   =    18
  open shells     =     0
  charge          =  -1.00
  wavefunction    = RHF 
  input vectors   = ./ch3fcl_zts_dat.movecs
  output vectors  = ./ch3fcl_zts_dat.movecs
  use symmetry    = F
  symmetry adapt  = F


 Forming initial guess at     120.1s


 Starting SCF solution at     120.1s



       Final RHF  results 
       ------------------ 

         Total SCF energy =   -598.473382355967
      One-electron energy =   -976.211649208676
      Two-electron energy =    307.373969124114
 Nuclear repulsion energy =     70.364297728596

        Time for solution =      1.6s


                              NWChem Gradients Module
                              -----------------------



                         RHF ENERGY GRADIENTS

    atom               coordinates                        gradient
                 x          y          z           x          y          z
   1 C       0.000000   0.000000   2.062623    0.000000   0.000000   0.043630
   2 F       0.000000   0.000000   8.546441   -0.000000  -0.000000   0.015105
   3 H       1.371897   1.371897   2.423780   -0.020173  -0.020173  -0.003182
   4 H       0.502149  -1.874047   2.423780   -0.007384   0.027556  -0.003182
   5 H      -1.874047   0.502149   2.423780    0.027556  -0.007384  -0.003182
   6 Cl      0.000000   0.000000  -2.259578   -0.000000  -0.000000  -0.049190

string: finished bead  19 energy=       -598.473382
 string: running bead                    20
                                 NWChem SCF Module
                                 -----------------



  ao basis        = "ao basis"
  functions       =    64
  atoms           =     6
  closed shells   =    18
  open shells     =     0
  charge          =  -1.00
  wavefunction    = RHF 
  input vectors   = ./ch3fcl_zts_dat.movecs
  output vectors  = ./ch3fcl_zts_dat.movecs
  use symmetry    = F
  symmetry adapt  = F


 Forming initial guess at     127.6s


 Starting SCF solution at     127.6s



       Final RHF  results 
       ------------------ 

         Total SCF energy =   -598.479904520342
      One-electron energy =   -977.726607561014
      Two-electron energy =    308.091910134085
 Nuclear repulsion energy =     71.154792906587

        Time for solution =      1.3s


                              NWChem Gradients Module
                              -----------------------



                         RHF ENERGY GRADIENTS

    atom               coordinates                        gradient
                 x          y          z           x          y          z
   1 C       0.000000   0.000000   2.004702    0.000000   0.000000   0.046231
   2 F       0.000000   0.000000   8.703537   -0.000000  -0.000000   0.012610
   3 H       1.371974   1.371974   2.423667   -0.016556  -0.016556  -0.002932
   4 H       0.502177  -1.874151   2.423667   -0.006060   0.022616  -0.002932
   5 H      -1.874151   0.502177   2.423667    0.022616  -0.006060  -0.002932
   6 Cl      0.000000   0.000000  -2.137682   -0.000000  -0.000000  -0.050046

string: finished bead  20 energy=       -598.479905
 string: running bead                    21
                                 NWChem SCF Module
                                 -----------------



  ao basis        = "ao basis"
  functions       =    64
  atoms           =     6
  closed shells   =    18
  open shells     =     0
  charge          =  -1.00
  wavefunction    = RHF 
  input vectors   = ./ch3fcl_zts_dat.movecs
  output vectors  = ./ch3fcl_zts_dat.movecs
  use symmetry    = F
  symmetry adapt  = F


 Forming initial guess at     134.6s


 Starting SCF solution at     134.6s



       Final RHF  results 
       ------------------ 

         Total SCF energy =   -598.486773800656
      One-electron energy =   -979.474834911944
      Two-electron energy =    308.925834661504
 Nuclear repulsion energy =     72.062226449784

        Time for solution =      1.5s


                              NWChem Gradients Module
                              -----------------------



                         RHF ENERGY GRADIENTS

    atom               coordinates                        gradient
                 x          y          z           x          y          z
   1 C       0.000000   0.000000   1.946782    0.000000   0.000000   0.044981
   2 F       0.000000   0.000000   8.860634   -0.000000  -0.000000   0.010430
   3 H       1.372050   1.372050   2.423554   -0.012650  -0.012650  -0.002513
   4 H       0.502205  -1.874256   2.423554   -0.004630   0.017281  -0.002513
   5 H      -1.874256   0.502205   2.423554    0.017281  -0.004630  -0.002513
   6 Cl      0.000000   0.000000  -2.015786   -0.000000  -0.000000  -0.047871

string: finished bead  21 energy=       -598.486774
 string: running bead                    22
                                 NWChem SCF Module
                                 -----------------



  ao basis        = "ao basis"
  functions       =    64
  atoms           =     6
  closed shells   =    18
  open shells     =     0
  charge          =  -1.00
  wavefunction    = RHF 
  input vectors   = ./ch3fcl_zts_dat.movecs
  output vectors  = ./ch3fcl_zts_dat.movecs
  use symmetry    = F
  symmetry adapt  = F


 Forming initial guess at     141.9s


 Starting SCF solution at     141.9s



       Final RHF  results 
       ------------------ 

         Total SCF energy =   -598.493188942020
      One-electron energy =   -981.479994348679
      Two-electron energy =    309.887750634813
 Nuclear repulsion energy =     73.099054771846

        Time for solution =      1.3s


                              NWChem Gradients Module
                              -----------------------



                         RHF ENERGY GRADIENTS

    atom               coordinates                        gradient
                 x          y          z           x          y          z
   1 C       0.000000   0.000000   1.888861    0.000000   0.000000   0.037936
   2 F       0.000000   0.000000   9.017731    0.000000   0.000000   0.008558
   3 H       1.372127   1.372127   2.423442   -0.008533  -0.008533  -0.001892
   4 H       0.502233  -1.874360   2.423442   -0.003123   0.011657  -0.001892
   5 H      -1.874360   0.502233   2.423442    0.011657  -0.003123  -0.001892
   6 Cl      0.000000   0.000000  -1.893890   -0.000000  -0.000000  -0.040818

string: finished bead  22 energy=       -598.493189
 string: running bead                    23
                                 NWChem SCF Module
                                 -----------------



  ao basis        = "ao basis"
  functions       =    64
  atoms           =     6
  closed shells   =    18
  open shells     =     0
  charge          =  -1.00
  wavefunction    = RHF 
  input vectors   = ./ch3fcl_zts_dat.movecs
  output vectors  = ./ch3fcl_zts_dat.movecs
  use symmetry    = F
  symmetry adapt  = F


 Forming initial guess at     149.2s


 Starting SCF solution at     149.2s



       Final RHF  results 
       ------------------ 

         Total SCF energy =   -598.497945617412
      One-electron energy =   -983.770520046365
      Two-electron energy =    310.991941796865
 Nuclear repulsion energy =     74.280632632088

        Time for solution =      1.3s


                              NWChem Gradients Module
                              -----------------------



                         RHF ENERGY GRADIENTS

    atom               coordinates                        gradient
                 x          y          z           x          y          z
   1 C       0.000000   0.000000   1.830940    0.000000   0.000000   0.022371
   2 F       0.000000   0.000000   9.174827    0.000000   0.000000   0.006999
   3 H       1.372204   1.372204   2.423329   -0.004284  -0.004284  -0.001052
   4 H       0.502261  -1.874465   2.423329   -0.001568   0.005852  -0.001052
   5 H      -1.874465   0.502261   2.423329    0.005852  -0.001568  -0.001052
   6 Cl      0.000000   0.000000  -1.771993   -0.000000  -0.000000  -0.026213

string: finished bead  23 energy=       -598.497946
 string: running bead                    24
                                 NWChem SCF Module
                                 -----------------



  ao basis        = "ao basis"
  functions       =    64
  atoms           =     6
  closed shells   =    18
  open shells     =     0
  charge          =  -1.00
  wavefunction    = RHF 
  input vectors   = ./ch3fcl_zts_dat.movecs
  output vectors  = ./ch3fcl_zts_dat.movecs
  use symmetry    = F
  symmetry adapt  = F


 Forming initial guess at     156.6s


 Starting SCF solution at     156.6s



       Final RHF  results 
       ------------------ 

         Total SCF energy =   -598.499246147845
      One-electron energy =   -986.380069307889
      Two-electron energy =    312.254947885774
 Nuclear repulsion energy =     75.625875274271

        Time for solution =      1.2s


                              NWChem Gradients Module
                              -----------------------



                         RHF ENERGY GRADIENTS

    atom               coordinates                        gradient
                 x          y          z           x          y          z
   1 C       0.000000   0.000000   1.773020    0.000000   0.000000  -0.005728
   2 F       0.000000   0.000000   9.331924   -0.000000  -0.000000   0.005708
   3 H       1.372280   1.372280   2.423216   -0.000006  -0.000006   0.000002
   4 H       0.502289  -1.874570   2.423216   -0.000002   0.000009   0.000002
   5 H      -1.874570   0.502289   2.423216    0.000009  -0.000002   0.000002
   6 Cl      0.000000   0.000000  -1.650097   -0.000000  -0.000000   0.000014

string: finished bead  24 energy=       -598.499246
 string: iteration #                    1
 string: Fixed Point step
 string: <g|s>=   8.3177706418856596E-003
 string: <s|s>=   8.3177706418856596E-003
 string: running bead                     2
                                 NWChem SCF Module
                                 -----------------



  ao basis        = "ao basis"
  functions       =    64
  atoms           =     6
  closed shells   =    18
  open shells     =     0
  charge          =  -1.00
  wavefunction    = RHF 
  input vectors   = ./ch3fcl_zts_dat.movecs
  output vectors  = ./ch3fcl_zts_dat.movecs
  use symmetry    = F
  symmetry adapt  = F


 Forming initial guess at     164.0s


 Starting SCF solution at     164.0s



       Final RHF  results 
       ------------------ 

         Total SCF energy =   -598.597637117904
      One-electron energy =   -979.948415862142
      Two-electron energy =    309.204020488448
 Nuclear repulsion energy =     72.146758255791

        Time for solution =      1.5s


                              NWChem Gradients Module
                              -----------------------



                         RHF ENERGY GRADIENTS

    atom               coordinates                        gradient
                 x          y          z           x          y          z
   1 C      -0.000000  -0.000000   3.083625   -0.000000  -0.000000  -0.033054
   2 F       0.000000   0.000000   5.859345   -0.000000  -0.000000   0.047941
   3 H       1.375571   1.375571   2.423196    0.000683   0.000683  -0.003588
   4 H       0.503494  -1.879064   2.423196    0.000250  -0.000932  -0.003588
   5 H      -1.879064   0.503494   2.423196   -0.000932   0.000250  -0.003588
   6 Cl      0.000000   0.000000  -4.290525   -0.000000  -0.000000  -0.004124

string: finished bead   2 energy=       -598.597637
 string: running bead                     3
                                 NWChem SCF Module
                                 -----------------



  ao basis        = "ao basis"
  functions       =    64
  atoms           =     6
  closed shells   =    18
  open shells     =     0
  charge          =  -1.00
  wavefunction    = RHF 
  input vectors   = ./ch3fcl_zts_dat.movecs
  output vectors  = ./ch3fcl_zts_dat.movecs
  use symmetry    = F
  symmetry adapt  = F


 Forming initial guess at     171.0s


 Starting SCF solution at     171.0s



       Final RHF  results 
       ------------------ 

         Total SCF energy =   -598.586352131316
      One-electron energy =   -978.027529397131
      Two-electron energy =    308.316912924198
 Nuclear repulsion energy =     71.124264341618

        Time for solution =      1.4s


                              NWChem Gradients Module
                              -----------------------



                         RHF ENERGY GRADIENTS

    atom               coordinates                        gradient
                 x          y          z           x          y          z
   1 C      -0.000000  -0.000000   3.037143    0.000000   0.000000  -0.058163
   2 F       0.000000   0.000000   6.008451   -0.000000  -0.000000   0.077778
   3 H       1.380045   1.380045   2.420873   -0.000569  -0.000569  -0.004917
   4 H       0.505132  -1.885177   2.420873   -0.000208   0.000778  -0.004917
   5 H      -1.885177   0.505132   2.420873    0.000778  -0.000208  -0.004917
   6 Cl      0.000000   0.000000  -4.158117   -0.000000  -0.000000  -0.004865

string: finished bead   3 energy=       -598.586352
 string: running bead                     4
                                 NWChem SCF Module
                                 -----------------



  ao basis        = "ao basis"
  functions       =    64
  atoms           =     6
  closed shells   =    18
  open shells     =     0
  charge          =  -1.00
  wavefunction    = RHF 
  input vectors   = ./ch3fcl_zts_dat.movecs
  output vectors  = ./ch3fcl_zts_dat.movecs
  use symmetry    = F
  symmetry adapt  = F


 Forming initial guess at     177.5s


 Starting SCF solution at     177.5s



       Final RHF  results 
       ------------------ 

         Total SCF energy =   -598.570437128088
      One-electron energy =   -976.284574912916
      Two-electron energy =    307.507637079969
 Nuclear repulsion energy =     70.206500704858

        Time for solution =      1.2s


                              NWChem Gradients Module
                              -----------------------



                         RHF ENERGY GRADIENTS

    atom               coordinates                        gradient
                 x          y          z           x          y          z
   1 C      -0.000000  -0.000000   2.980363    0.000000   0.000000  -0.068915
   2 F      -0.000000  -0.000000   6.159663    0.000000   0.000000   0.090426
   3 H       1.384141   1.384141   2.418721   -0.002604  -0.002604  -0.005249
   4 H       0.506631  -1.890772   2.418721   -0.000953   0.003557  -0.005249
   5 H      -1.890772   0.506631   2.418721    0.003557  -0.000953  -0.005249
   6 Cl      0.000000   0.000000  -4.036428   -0.000000  -0.000000  -0.005764

string: finished bead   4 energy=       -598.570437
 string: running bead                     5
                                 NWChem SCF Module
                                 -----------------



  ao basis        = "ao basis"
  functions       =    64
  atoms           =     6
  closed shells   =    18
  open shells     =     0
  charge          =  -1.00
  wavefunction    = RHF 
  input vectors   = ./ch3fcl_zts_dat.movecs
  output vectors  = ./ch3fcl_zts_dat.movecs
  use symmetry    = F
  symmetry adapt  = F


 Forming initial guess at     183.7s


 Starting SCF solution at     183.7s



       Final RHF  results 
       ------------------ 

         Total SCF energy =   -598.552914456915
      One-electron energy =   -974.800177692261
      Two-electron energy =    306.816573373244
 Nuclear repulsion energy =     69.430689862101

        Time for solution =      1.5s


                              NWChem Gradients Module
                              -----------------------



                         RHF ENERGY GRADIENTS

    atom               coordinates                        gradient
                 x          y          z           x          y          z
   1 C       0.000000   0.000000   2.918889   -0.000000  -0.000000  -0.069847
   2 F      -0.000000  -0.000000   6.312030    0.000000   0.000000   0.092150
   3 H       1.387928   1.387928   2.416727   -0.004896  -0.004896  -0.005150
   4 H       0.508017  -1.895945   2.416727   -0.001792   0.006687  -0.005150
   5 H      -1.895945   0.508017   2.416727    0.006687  -0.001792  -0.005150
   6 Cl      0.000000   0.000000  -3.919194    0.000000   0.000000  -0.006854

string: finished bead   5 energy=       -598.552914
 string: running bead                     6
                                 NWChem SCF Module
                                 -----------------



  ao basis        = "ao basis"
  functions       =    64
  atoms           =     6
  closed shells   =    18
  open shells     =     0
  charge          =  -1.00
  wavefunction    = RHF 
  input vectors   = ./ch3fcl_zts_dat.movecs
  output vectors  = ./ch3fcl_zts_dat.movecs
  use symmetry    = F
  symmetry adapt  = F


 Forming initial guess at     190.3s


 Starting SCF solution at     190.3s



       Final RHF  results 
       ------------------ 

         Total SCF energy =   -598.535723392501
      One-electron energy =   -973.582378106232
      Two-electron energy =    306.248924958519
 Nuclear repulsion energy =     68.797729755211

        Time for solution =      1.2s


                              NWChem Gradients Module
                              -----------------------



                         RHF ENERGY GRADIENTS

    atom               coordinates                        gradient
                 x          y          z           x          y          z
   1 C      -0.000000  -0.000000   2.855079    0.000000   0.000000  -0.065063
   2 F       0.000000   0.000000   6.465197    0.000000   0.000000   0.087775
   3 H       1.391405   1.391405   2.414901   -0.007175  -0.007175  -0.004853
   4 H       0.509289  -1.900694   2.414901   -0.002626   0.009801  -0.004853
   5 H      -1.900694   0.509289   2.414901    0.009801  -0.002626  -0.004853
   6 Cl      0.000000   0.000000  -3.803689    0.000000   0.000000  -0.008153

string: finished bead   6 energy=       -598.535723
 string: running bead                     7
                                 NWChem SCF Module
                                 -----------------



  ao basis        = "ao basis"
  functions       =    64
  atoms           =     6
  closed shells   =    18
  open shells     =     0
  charge          =  -1.00
  wavefunction    = RHF 
  input vectors   = ./ch3fcl_zts_dat.movecs
  output vectors  = ./ch3fcl_zts_dat.movecs
  use symmetry    = F
  symmetry adapt  = F


 Forming initial guess at     196.6s


 Starting SCF solution at     196.6s



       Final RHF  results 
       ------------------ 

         Total SCF energy =   -598.519932510872
      One-electron energy =   -972.618545110490
      Two-electron energy =    305.799133814327
 Nuclear repulsion energy =     68.299478785291

        Time for solution =      1.3s


                              NWChem Gradients Module
                              -----------------------



                         RHF ENERGY GRADIENTS

    atom               coordinates                        gradient
                 x          y          z           x          y          z
   1 C      -0.000000  -0.000000   2.790145    0.000000   0.000000  -0.057376
   2 F       0.000000   0.000000   6.619105   -0.000000  -0.000000   0.080469
   3 H       1.394539   1.394539   2.413341   -0.009289  -0.009289  -0.004450
   4 H       0.510437  -1.904976   2.413341   -0.003400   0.012688  -0.004450
   5 H      -1.904976   0.510437   2.413341    0.012688  -0.003400  -0.004450
   6 Cl      0.000000   0.000000  -3.688412    0.000000   0.000000  -0.009742

string: finished bead   7 energy=       -598.519933
 string: running bead                     8
                                 NWChem SCF Module
                                 -----------------



  ao basis        = "ao basis"
  functions       =    64
  atoms           =     6
  closed shells   =    18
  open shells     =     0
  charge          =  -1.00
  wavefunction    = RHF 
  input vectors   = ./ch3fcl_zts_dat.movecs
  output vectors  = ./ch3fcl_zts_dat.movecs
  use symmetry    = F
  symmetry adapt  = F


 Forming initial guess at     203.2s


 Starting SCF solution at     203.2s



       Final RHF  results 
       ------------------ 

         Total SCF energy =   -598.506045717683
      One-electron energy =   -971.891150116142
      Two-electron energy =    305.458681156950
 Nuclear repulsion energy =     67.926423241509

        Time for solution =      1.3s


                              NWChem Gradients Module
                              -----------------------



                         RHF ENERGY GRADIENTS

    atom               coordinates                        gradient
                 x          y          z           x          y          z
   1 C      -0.000000  -0.000000   2.724452   -0.000000  -0.000000  -0.048485
   2 F      -0.000000  -0.000000   6.773517    0.000000   0.000000   0.072149
   3 H       1.397287   1.397287   2.411875   -0.011144  -0.011144  -0.004014
   4 H       0.511442  -1.908729   2.411875   -0.004079   0.015223  -0.004014
   5 H      -1.908729   0.511442   2.411875    0.015223  -0.004079  -0.004014
   6 Cl      0.000000   0.000000  -3.572757   -0.000000  -0.000000  -0.011623

string: finished bead   8 energy=       -598.506046
 string: running bead                     9
                                 NWChem SCF Module
                                 -----------------



  ao basis        = "ao basis"
  functions       =    64
  atoms           =     6
  closed shells   =    18
  open shells     =     0
  charge          =  -1.00
  wavefunction    = RHF 
  input vectors   = ./ch3fcl_zts_dat.movecs
  output vectors  = ./ch3fcl_zts_dat.movecs
  use symmetry    = F
  symmetry adapt  = F


 Forming initial guess at     209.5s


 Starting SCF solution at     209.5s



       Final RHF  results 
       ------------------ 

         Total SCF energy =   -598.494242425431
      One-electron energy =   -971.383201456331
      Two-electron energy =    305.219044917434
 Nuclear repulsion energy =     67.669914113466

        Time for solution =      1.3s


                              NWChem Gradients Module
                              -----------------------



                         RHF ENERGY GRADIENTS

    atom               coordinates                        gradient
                 x          y          z           x          y          z
   1 C       0.000000   0.000000   2.658396    0.000000   0.000000  -0.039289
   2 F      -0.000000  -0.000000   6.928576    0.000000   0.000000   0.063821
   3 H       1.399601   1.399601   2.410636   -0.012690  -0.012690  -0.003565
   4 H       0.512290  -1.911890   2.410636   -0.004645   0.017335  -0.003565
   5 H      -1.911890   0.512290   2.410636    0.017335  -0.004645  -0.003565
   6 Cl      0.000000   0.000000  -3.456150   -0.000000  -0.000000  -0.013837

string: finished bead   9 energy=       -598.494242
 string: running bead                    10
                                 NWChem SCF Module
                                 -----------------



  ao basis        = "ao basis"
  functions       =    64
  atoms           =     6
  closed shells   =    18
  open shells     =     0
  charge          =  -1.00
  wavefunction    = RHF 
  input vectors   = ./ch3fcl_zts_dat.movecs
  output vectors  = ./ch3fcl_zts_dat.movecs
  use symmetry    = F
  symmetry adapt  = F


 Forming initial guess at     215.9s


 Starting SCF solution at     215.9s



       Final RHF  results 
       ------------------ 

         Total SCF energy =   -598.484534431874
      One-electron energy =   -971.081804938713
      Two-electron energy =    305.073806848900
 Nuclear repulsion energy =     67.523463657939

        Time for solution =      1.3s


                              NWChem Gradients Module
                              -----------------------



                         RHF ENERGY GRADIENTS

    atom               coordinates                        gradient
                 x          y          z           x          y          z
   1 C       0.000000   0.000000   2.592075    0.000000   0.000000  -0.030197
   2 F       0.000000   0.000000   7.084312   -0.000000  -0.000000   0.056010
   3 H       1.401429   1.401429   2.409637   -0.013891  -0.013891  -0.003128
   4 H       0.512958  -1.914387   2.409637   -0.005084   0.018975  -0.003128
   5 H      -1.914387   0.512958   2.409637    0.018975  -0.005084  -0.003128
   6 Cl     -0.000000  -0.000000  -3.338302   -0.000000  -0.000000  -0.016429

string: finished bead  10 energy=       -598.484534
 string: running bead                    11
                                 NWChem SCF Module
                                 -----------------



  ao basis        = "ao basis"
  functions       =    64
  atoms           =     6
  closed shells   =    18
  open shells     =     0
  charge          =  -1.00
  wavefunction    = RHF 
  input vectors   = ./ch3fcl_zts_dat.movecs
  output vectors  = ./ch3fcl_zts_dat.movecs
  use symmetry    = F
  symmetry adapt  = F


 Forming initial guess at     222.3s


 Starting SCF solution at     222.3s



       Final RHF  results 
       ------------------ 

         Total SCF energy =   -598.476858223491
      One-electron energy =   -970.977700647307
      Two-electron energy =    305.018536856219
 Nuclear repulsion energy =     67.482305567597

        Time for solution =      1.3s


                              NWChem Gradients Module
                              -----------------------



                         RHF ENERGY GRADIENTS

    atom               coordinates                        gradient
                 x          y          z           x          y          z
   1 C       0.000000   0.000000   2.525545   -0.000000  -0.000000  -0.021387
   2 F       0.000000   0.000000   7.240808   -0.000000  -0.000000   0.048931
   3 H       1.402719   1.402719   2.408874   -0.014727  -0.014727  -0.002710
   4 H       0.513431  -1.916150   2.408874   -0.005391   0.020118  -0.002710
   5 H      -1.916150   0.513431   2.408874    0.020118  -0.005391  -0.002710
   6 Cl     -0.000000  -0.000000  -3.219045    0.000000   0.000000  -0.019416

string: finished bead  11 energy=       -598.476858
 string: running bead                    12
                                 NWChem SCF Module
                                 -----------------



  ao basis        = "ao basis"
  functions       =    64
  atoms           =     6
  closed shells   =    18
  open shells     =     0
  charge          =  -1.00
  wavefunction    = RHF 
  input vectors   = ./ch3fcl_zts_dat.movecs
  output vectors  = ./ch3fcl_zts_dat.movecs
  use symmetry    = F
  symmetry adapt  = F


 Forming initial guess at     228.7s


 Starting SCF solution at     228.7s



       Final RHF  results 
       ------------------ 

         Total SCF energy =   -598.471132477787
      One-electron energy =   -971.065735742866
      Two-electron energy =    305.051046330244
 Nuclear repulsion energy =     67.543556934835

        Time for solution =      1.5s


                              NWChem Gradients Module
                              -----------------------



                         RHF ENERGY GRADIENTS

    atom               coordinates                        gradient
                 x          y          z           x          y          z
   1 C       0.000000   0.000000   2.458828    0.000000   0.000000  -0.012843
   2 F       0.000000   0.000000   7.398154    0.000000   0.000000   0.042642
   3 H       1.403432   1.403432   2.408357   -0.015182  -0.015182  -0.002321
   4 H       0.513692  -1.917123   2.408357   -0.005557   0.020740  -0.002321
   5 H      -1.917123   0.513692   2.408357    0.020740  -0.005557  -0.002321
   6 Cl      0.000000   0.000000  -3.098286   -0.000000  -0.000000  -0.022836

string: finished bead  12 energy=       -598.471132
 string: running bead                    13
                                 NWChem SCF Module
                                 -----------------



  ao basis        = "ao basis"
  functions       =    64
  atoms           =     6
  closed shells   =    18
  open shells     =     0
  charge          =  -1.00
  wavefunction    = RHF 
  input vectors   = ./ch3fcl_zts_dat.movecs
  output vectors  = ./ch3fcl_zts_dat.movecs
  use symmetry    = F
  symmetry adapt  = F


 Forming initial guess at     235.5s


 Starting SCF solution at     235.5s



       Final RHF  results 
       ------------------ 

         Total SCF energy =   -598.467288312891
      One-electron energy =   -971.344133331292
[...]
 string: running bead                    22
                                 NWChem SCF Module
                                 -----------------



  ao basis        = "ao basis"
  functions       =    64
  atoms           =     6
  closed shells   =    18
  open shells     =     0
  charge          =  -1.00
  wavefunction    = RHF 
  input vectors   = ./ch3fcl_zts_dat.movecs
  output vectors  = ./ch3fcl_zts_dat.movecs
  use symmetry    = F
  symmetry adapt  = F


 Forming initial guess at    1842.5s


 Starting SCF solution at    1842.5s



       Final RHF  results 
       ------------------ 

         Total SCF energy =   -598.503614568216
      One-electron energy =   -988.857408762051
      Two-electron energy =    313.587941057396
 Nuclear repulsion energy =     76.765853136439

        Time for solution =      1.2s


                              NWChem Gradients Module
                              -----------------------



                         RHF ENERGY GRADIENTS

    atom               coordinates                        gradient
                 x          y          z           x          y          z
   1 C      -0.000000  -0.000000   1.753999    0.000001   0.000001   0.006513
   2 F       0.000000   0.000000   8.652516   -0.000000  -0.000000   0.009112
   3 H       1.371699   1.371699   2.372371   -0.002054  -0.002054  -0.001787
   4 H       0.502077  -1.873776   2.372370   -0.000752   0.002807  -0.001787
   5 H      -1.873776   0.502077   2.372370    0.002807  -0.000752  -0.001787
   6 Cl      0.000000   0.000000  -1.742881   -0.000001  -0.000001  -0.010265

string: finished bead  22 energy=       -598.503615
 string: running bead                    23
                                 NWChem SCF Module
                                 -----------------



  ao basis        = "ao basis"
  functions       =    64
  atoms           =     6
  closed shells   =    18
  open shells     =     0
  charge          =  -1.00
  wavefunction    = RHF 
  input vectors   = ./ch3fcl_zts_dat.movecs
  output vectors  = ./ch3fcl_zts_dat.movecs
  use symmetry    = F
  symmetry adapt  = F


 Forming initial guess at    1850.1s


 Starting SCF solution at    1850.1s



       Final RHF  results 
       ------------------ 

         Total SCF energy =   -598.501353444991
      One-electron energy =   -987.860199702478
      Two-electron energy =    313.042498465232
 Nuclear repulsion energy =     76.316347792256

        Time for solution =      1.2s


                              NWChem Gradients Module
                              -----------------------



                         RHF ENERGY GRADIENTS

    atom               coordinates                        gradient
                 x          y          z           x          y          z
   1 C      -0.000000  -0.000000   1.744745    0.000000   0.000000   0.002019
   2 F      -0.000000  -0.000000   8.960239    0.000000   0.000000   0.007341
   3 H       1.370790   1.370790   2.371821   -0.001907  -0.001907  -0.001928
   4 H       0.501744  -1.872535   2.371821   -0.000698   0.002605  -0.001928
   5 H      -1.872535   0.501744   2.371821    0.002605  -0.000698  -0.001928
   6 Cl      0.000000   0.000000  -1.708078   -0.000000  -0.000000  -0.003577

string: finished bead  23 energy=       -598.501353
 string: gmax,grms,xrms,xmax=   8.6974544580645130E-002   1.4043451638351866E-002   6.8222338472141480E-005   8.9839151333548860E-004
@zts    10   0.000068   0.000898   -598.6010641   -598.4889293   -598.4992461   -598.4868864   -598.5277050   1857.6
 string: Path Energy #                   10
 string:                     1  -598.60106410323044     
 string:                     2  -598.60206055431684     
 string:                     3  -598.60230062172627     
 string:                     4  -598.59971999074662     
 string:                     5  -598.59121290743644     
 string:                     6  -598.57665927346795     
 string:                     7  -598.55896929050402     
 string:                     8  -598.54116875913280     
 string:                     9  -598.52514345890552     
 string:                    10  -598.51175823185940     
 string:                    11  -598.50127622149785     
 string:                    12  -598.49369586245609     
 string:                    13  -598.48892931713453     
 string:                    14  -598.48688644000742     
 string:                    15  -598.48724265918406     
 string:                    16  -598.48960194105564     
 string:                    17  -598.49342917175011     
 string:                    18  -598.49792346824199     
 string:                    19  -598.50201884105581     
 string:                    20  -598.50460836513116     
 string:                    21  -598.50503705122151     
 string:                    22  -598.50361456821588     
 string:                    23  -598.50135344499051     
 string:                    24  -598.49924614784538     
@zts The string calculation converged

@zts Bead number    1  Potential Energy =    -598.601064103230
     6
 geometry
 C                     0.00000000     0.00000000     1.64319769
 F                     0.00000000     0.00000000     3.02620684
 H                     0.72524782     0.72524782     1.28368498
 H                     0.26545913    -0.99070694     1.28368498
 H                    -0.99070694     0.26545913     1.28368498
 Cl                    0.00000000     0.00000000    -2.35680231
@zts Bead number    2  Potential Energy =    -598.602060554317
     6
 geometry
 C                    -0.00000038    -0.00000038     1.63861633
 F                     0.00000064     0.00000064     3.03629823
 H                     0.72322595     0.72322595     1.28264870
 H                     0.26471906    -0.98794529     1.28264898
 H                    -0.98794529     0.26471906     1.28264898
 Cl                    0.00000002     0.00000002    -2.19222515
@zts Bead number    3  Potential Energy =    -598.602300621726
     6
 geometry
 C                    -0.00000005    -0.00000005     1.63716708
 F                     0.00000008     0.00000008     3.06152027
 H                     0.72322966     0.72322966     1.28260674
 H                     0.26472041    -0.98795011     1.28260677
 H                    -0.98795011     0.26472041     1.28260677
 Cl                    0.00000003     0.00000003    -2.03068312
@zts Bead number    4  Potential Energy =    -598.599719990747
     6
 geometry
 C                     0.00000017     0.00000017     1.63093945
 F                    -0.00000025    -0.00000025     3.10554609
 H                     0.72718715     0.72718715     1.28060193
 H                     0.26616897    -0.99335600     1.28060178
 H                    -0.99335600     0.26616897     1.28060178
 Cl                   -0.00000004    -0.00000004    -1.91039807
@zts Bead number    5  Potential Energy =    -598.591212907436
     6
 geometry
 C                     0.00000015     0.00000015     1.61105658
 F                    -0.00000027    -0.00000027     3.16891479
 H                     0.73234532     0.73234532     1.27796618
 H                     0.26805702    -1.00040223     1.27796626
 H                    -1.00040223     0.26805702     1.27796626
 Cl                    0.00000002     0.00000002    -1.82854528
@zts Bead number    6  Potential Energy =    -598.576659273468
     6
 geometry
 C                     0.00000005     0.00000005     1.57843181
 F                    -0.00000007    -0.00000007     3.24402396
 H                     0.73706064     0.73706064     1.27558191
 H                     0.26978295    -1.00684361     1.27558149
 H                    -1.00684361     0.26978295     1.27558149
 Cl                    0.00000004     0.00000004    -1.76915224
@zts Bead number    7  Potential Energy =    -598.558969290504
     6
 geometry
 C                     0.00000016     0.00000016     1.53768072
 F                    -0.00000030    -0.00000030     3.32431127
 H                     0.74111902     0.74111902     1.27346286
 H                     0.27126837    -1.01238728     1.27346278
 H                    -1.01238728     0.27126837     1.27346278
 Cl                    0.00000004     0.00000004    -1.72017109
@zts Bead number    8  Potential Energy =    -598.541168759133
     6
 geometry
 C                    -0.00000003    -0.00000003     1.49281297
 F                     0.00000000     0.00000000     3.40673819
 H                     0.74454630     0.74454630     1.27177129
 H                     0.27252285    -1.01706914     1.27177117
 H                    -1.01706914     0.27252285     1.27177117
 Cl                    0.00000002     0.00000002    -1.67449352
@zts Bead number    9  Potential Energy =    -598.525143458906
     6
 geometry
 C                    -0.00000012    -0.00000012     1.44599766
 F                     0.00000020     0.00000020     3.48969160
 H                     0.74734049     0.74734049     1.27040189
 H                     0.27354560    -1.02088620     1.27040158
 H                    -1.02088620     0.27354560     1.27040158
 Cl                    0.00000003     0.00000003    -1.62843573
@zts Bead number   10  Potential Energy =    -598.511758231859
     6
 geometry
 C                     0.00000002     0.00000002     1.39865164
 F                    -0.00000001    -0.00000001     3.57255323
 H                     0.74947808     0.74947808     1.26934705
 H                     0.27432800    -1.02380608     1.26934711
 H                    -1.02380608     0.27432800     1.26934711
 Cl                   -0.00000001    -0.00000001    -1.57987494
@zts Bead number   11  Potential Energy =    -598.501276221498
     6
 geometry
 C                    -0.00000002    -0.00000002     1.35124185
 F                     0.00000001     0.00000001     3.65488923
 H                     0.75092090     0.75092090     1.26869110
 H                     0.27485613    -1.02577705     1.26869131
 H                    -1.02577705     0.27485613     1.26869131
 Cl                    0.00000004     0.00000004    -1.52767734
@zts Bead number   12  Potential Energy =    -598.493695862456
     6
 geometry
 C                    -0.00000001    -0.00000001     1.30384355
 F                     0.00000001     0.00000001     3.73628373
 H                     0.75169362     0.75169362     1.26830161
 H                     0.27513897    -1.02683262     1.26830170
 H                    -1.02683262     0.27513897     1.26830170
 Cl                    0.00000003     0.00000003    -1.47157750
@zts Bead number   13  Potential Energy =    -598.488929317135
     6
 geometry
 C                    -0.00000002    -0.00000002     1.25623603
 F                     0.00000004     0.00000004     3.81648262
 H                     0.75169967     0.75169967     1.26823411
 H                     0.27514118    -1.02684083     1.26823398
 H                    -1.02684083     0.27514118     1.26823398
 Cl                   -0.00000003    -0.00000003    -1.41121905
@zts Bead number   14  Potential Energy =    -598.486886440007
     6
 geometry
 C                     0.00000002     0.00000002     1.20925830
 F                     0.00000001     0.00000001     3.89267163
 H                     0.75093178     0.75093178     1.26786505
 H                     0.27486007    -1.02579172     1.26786450
 H                    -1.02579172     0.27486007     1.26786450
 Cl                   -0.00000016    -0.00000016    -1.34945397
@zts Bead number   15  Potential Energy =    -598.487242659184
     6
 geometry
 C                     0.00000005     0.00000005     1.16266903
 F                     0.00000001     0.00000001     3.96493138
 H                     0.74936310     0.74936310     1.26707835
 H                     0.27428594    -1.02364898     1.26707819
 H                    -1.02364898     0.27428594     1.26707819
 Cl                   -0.00000011    -0.00000011    -1.28699064
@zts Bead number   16  Potential Energy =    -598.489601941056
     6
 geometry
 C                     0.00000004     0.00000004     1.11687569
 F                     0.00000005     0.00000005     4.03453843
 H                     0.74705405     0.74705405     1.26591830
 H                     0.27344078    -1.02049484     1.26591809
 H                    -1.02049484     0.27344078     1.26591809
 Cl                   -0.00000008    -0.00000008    -1.22441391
@zts Bead number   17  Potential Energy =    -598.493429171750
     6
 geometry
 C                    -0.00000004    -0.00000004     1.07247358
 F                     0.00000003     0.00000003     4.10341542
 H                     0.74411347     0.74411347     1.26449446
 H                     0.27236447    -1.01647801     1.26449463
 H                    -1.01647801     0.27236447     1.26449463
 Cl                    0.00000008     0.00000008    -1.16250614
@zts Bead number   18  Potential Energy =    -598.497923468242
     6
 geometry
 C                     0.00000002     0.00000002     1.03065639
 F                    -0.00000003    -0.00000003     4.17427717
 H                     0.74063100     0.74063100     1.26279883
 H                     0.27108975    -1.01172072     1.26279882
 H                    -1.01172072     0.27108975     1.26279882
 Cl                   -0.00000003    -0.00000003    -1.10243825
@zts Bead number   19  Potential Energy =    -598.502018841056
     6
 geometry
 C                    -0.00000011    -0.00000011     0.99317914
 F                     0.00000002     0.00000002     4.25091253
 H                     0.73670453     0.73670453     1.26082699
 H                     0.26965258    -1.00635721     1.26082681
 H                    -1.00635721     0.26965258     1.26082681
 Cl                    0.00000019     0.00000019    -1.04585517
@zts Bead number   20  Potential Energy =    -598.504608365131
     6
 geometry
 C                    -0.00000021    -0.00000021     0.96233897
 F                     0.00000001     0.00000001     4.33885610
 H                     0.73254631     0.73254631     1.25873972
 H                     0.26813061    -1.00067706     1.25873985
 H                    -1.00067706     0.26813061     1.25873985
 Cl                    0.00000035     0.00000035    -0.99498542
@zts Bead number   21  Potential Energy =    -598.505037051222
     6
 geometry
 C                    -0.00000000    -0.00000000     0.94039289
 F                     0.00000003     0.00000003     4.44560335
 H                     0.72862324     0.72862324     1.25678547
 H                     0.26669452    -0.99531774     1.25678438
 H                    -0.99531774     0.26669452     1.25678438
 Cl                   -0.00000006    -0.00000006    -0.95295345
@zts Bead number   22  Potential Energy =    -598.503614568216
     6
 geometry
 C                    -0.00000013    -0.00000013     0.92817623
 F                     0.00000002     0.00000002     4.57871488
 H                     0.72587206     0.72587206     1.25540453
 H                     0.26568763    -0.99155983     1.25540435
 H                    -0.99155983     0.26568763     1.25540435
 Cl                    0.00000025     0.00000025    -0.92229287
@zts Bead number   23  Potential Energy =    -598.501353444991
     6
 geometry
 C                    -0.00000003    -0.00000003     0.92327931
 F                    -0.00000000    -0.00000000     4.74155454
 H                     0.72539111     0.72539111     1.25511368
 H                     0.26551160    -0.99090275     1.25511367
 H                    -0.99090275     0.26551160     1.25511367
 Cl                    0.00000007     0.00000007    -0.90387596
@zts Bead number   24  Potential Energy =    -598.499246147845
     6
 geometry
 C                     0.00000000     0.00000000     0.91055403
 F                     0.00000000     0.00000000     4.91055403
 H                     0.72617942     0.72617942     1.25462292
 H                     0.26580012    -0.99197954     1.25462292
 H                    -0.99197954     0.26580012     1.25462292
 Cl                    0.00000000     0.00000000    -0.90088156



                                NWChem Input Module
                                -------------------




                                     CITATION
                                     --------
                Please cite the following reference when publishing
                           results obtained with NWChem:

          E. Apra, E. J. Bylaska, W. A. de Jong, N. Govind, K. Kowalski,
       T. P. Straatsma, M. Valiev, H. J. J. van Dam, Y. Alexeev, J. Anchell,
       V. Anisimov, F. W. Aquino, R. Atta-Fynn, J. Autschbach, N. P. Bauman,
     J. C. Becca, D. E. Bernholdt, K. Bhaskaran-Nair, S. Bogatko, P. Borowski,
         J. Boschen, J. Brabec, A. Bruner, E. Cauet, Y. Chen, G. N. Chuev,
      C. J. Cramer, J. Daily, M. J. O. Deegan, T. H. Dunning Jr., M. Dupuis,
   K. G. Dyall, G. I. Fann, S. A. Fischer, A. Fonari, H. Fruchtl, L. Gagliardi,
      J. Garza, N. Gawande, S. Ghosh, K. Glaesemann, A. W. Gotz, J. Hammond,
       V. Helms, E. D. Hermes, K. Hirao, S. Hirata, M. Jacquelin, L. Jensen,
   B. G. Johnson, H. Jonsson, R. A. Kendall, M. Klemm, R. Kobayashi, V. Konkov,
      S. Krishnamoorthy, M. Krishnan, Z. Lin, R. D. Lins, R. J. Littlefield,
      A. J. Logsdail, K. Lopata, W. Ma, A. V. Marenich, J. Martin del Campo,
   D. Mejia-Rodriguez, J. E. Moore, J. M. Mullin, T. Nakajima, D. R. Nascimento,
    J. A. Nichols, P. J. Nichols, J. Nieplocha, A. Otero-de-la-Roza, B. Palmer,
    A. Panyala, T. Pirojsirikul, B. Peng, R. Peverati, J. Pittner, L. Pollack,
   R. M. Richard, P. Sadayappan, G. C. Schatz, W. A. Shelton, D. W. Silverstein,
   D. M. A. Smith, T. A. Soares, D. Song, M. Swart, H. L. Taylor, G. S. Thomas,
            V. Tipparaju, D. G. Truhlar, K. Tsemekhman, T. Van Voorhis,
      A. Vazquez-Mayagoitia, P. Verma, O. Villa, A. Vishnu, K. D. Vogiatzis,
        D. Wang, J. H. Weare, M. J. Williamson, T. L. Windus, K. Wolinski,
        A. T. Wong, Q. Wu, C. Yang, Q. Yu, M. Zacharias, Z. Zhang, Y. Zhao,
                                and R. J. Harrison
                        "NWChem: Past, present, and future
                         J. Chem. Phys. 152, 184102 (2020)
                               doi:10.1063/5.0004997

                                      AUTHORS
                                      -------
  E. Apra, E. J. Bylaska, N. Govind, K. Kowalski, M. Valiev, D. Mejia-Rodriguez,
       A. Kunitsa, N. P. Bauman, A. Panyala, W. A. de Jong, T. P. Straatsma,
        H. J. J. van Dam, D. Wang, T. L. Windus, J. Hammond, J. Autschbach,
    K. Bhaskaran-Nair, J. Brabec, K. Lopata, S. A. Fischer, S. Krishnamoorthy,
     M. Jacquelin, W. Ma, M. Klemm, O. Villa, Y. Chen, V. Anisimov, F. Aquino,
    S. Hirata, M. T. Hackler, Eric Hermes, L. Jensen, J. E. Moore, J. C. Becca,
      V. Konjkov, T. Risthaus, M. Malagoli, A. Marenich, A. Otero-de-la-Roza,
        J. Mullin, P. Nichols, R. Peverati, J. Pittner, Y. Zhao, P.-D. Fan,
        A. Fonari, M. J. Williamson, R. J. Harrison, J. R. Rehr, M. Dupuis,
     D. Silverstein, D. M. A. Smith, J. Nieplocha, V. Tipparaju, M. Krishnan,
     B. E. Van Kuiken, A. Vazquez-Mayagoitia, M. Swart, Q. Wu, T. Van Voorhis,
     A. A. Auer, M. Nooijen, L. D. Crosby, E. Brown, G. Cisneros, G. I. Fann,
   H. Fruchtl, J. Garza, K. Hirao, R. A. Kendall, J. A. Nichols, K. Tsemekhman,
    K. Wolinski, J. Anchell, D. E. Bernholdt, P. Borowski, T. Clark, D. Clerc,
   H. Dachsel, M. J. O. Deegan, K. Dyall, D. Elwood, E. Glendening, M. Gutowski,
   A. C. Hess, J. Jaffe, B. G. Johnson, J. Ju, R. Kobayashi, R. Kutteh, Z. Lin,
   R. Littlefield, X. Long, B. Meng, T. Nakajima, S. Niu, L. Pollack, M. Rosing,
   K. Glaesemann, G. Sandrone, M. Stave, H. Taylor, G. Thomas, J. H. van Lenthe,
                               A. T. Wong, Z. Zhang.

 Total times  cpu:     1806.7s     wall:     1859.3s
