 argument  1 = noft_h2_nosym.nw



============================== echo of input deck ==============================
echo
start noft_h2_dat

scratch_dir .
permanent_dir .

geometry units angstrom noautosym
  h 0.0 0.0 -0.38044621
  h 0.0 0.0  0.38044621
end

basis spherical
  * library cc-pvdz
end

scf
  vectors input atomic output noft_h2_dat.movecs
end

noft
  temperature 0.0
  restricted
  pairrotation
  vectors input noft_h2_dat.movecs output noft_h2_dat.movecs
end

task scf  energy
task noft energy
================================================================================


                                         
                                         


             Northwest Computational Chemistry Package (NWChem) 7.2.1
             --------------------------------------------------------


                    Environmental Molecular Sciences Laboratory
                       Pacific Northwest National Laboratory
                                Richland, WA 99352

                              Copyright (c) 1994-2022
                       Pacific Northwest National Laboratory
                            Battelle Memorial Institute

             NWChem is an open-source computational chemistry package
                        distributed under the terms of the
                      Educational Community License (ECL) 2.0
             A copy of the license is included with this distribution
                              in the LICENSE.TXT file

                                  ACKNOWLEDGMENT
                                  --------------

            This software and its documentation were developed at the
            EMSL at Pacific Northwest National Laboratory, a multiprogram
            national laboratory, operated for the U.S. Department of Energy
            by Battelle under Contract Number DE-AC05-76RL01830. Support
            for this work was provided by the Department of Energy Office
            of Biological and Environmental Research, Office of Basic
            Energy Sciences, and the Office of Advanced Scientific Computing.


           Job information
           ---------------

    hostname        = lima-apptainer-al9
    program         = ../../../bin/LINUX64/nwchem
    date            = Sun Apr 20 14:55:47 2025

    compiled        = Sun_Apr_20_14:53:42_2025
    source          = /Users/hubertusvandam/Documents/nwchem-1-noft.nosync
    nwchem branch   = 7.2.1
    nwchem revision = nwchem_on_git-5531-ge8376a4b81
    ga revision     = 5.8.0
    use scalapack   = F
    input           = noft_h2_nosym.nw
    prefix          = noft_h2_dat.
    data base       = ./noft_h2_dat.db
    status          = startup
    nproc           =        1
    time left       =     -1s



           Memory information
           ------------------

    heap     =     26214398 doubles =      200.0 Mbytes
    stack    =     26214395 doubles =      200.0 Mbytes
    global   =     52428800 doubles =      400.0 Mbytes (distinct from heap & stack)
    total    =    104857593 doubles =      800.0 Mbytes
    verify   = yes
    hardfail = no 


           Directory information
           ---------------------

  0 permanent = .
  0 scratch   = .




                                NWChem Input Module
                                -------------------



 Scaling coordinates for geometry "geometry" by  1.889725989
 (inverse scale =  0.529177249)


          ------
          auto-z
          ------
  no constraints, skipping    0.0000000000000000     
  no constraints, skipping    0.0000000000000000     


                             Geometry "geometry" -> ""
                             -------------------------

 Output coordinates in angstroms (scale by  1.889725989 to convert to a.u.)

  No.       Tag          Charge          X              Y              Z
 ---- ---------------- ---------- -------------- -------------- --------------
    1 h                    1.0000     0.00000000     0.00000000    -0.38044621
    2 h                    1.0000     0.00000000     0.00000000     0.38044621

      Atomic Mass 
      ----------- 

      h                  1.007825


 Effective nuclear repulsion energy (a.u.)       0.6954692084

            Nuclear Dipole moment (a.u.) 
            ----------------------------
        X                 Y               Z
 ---------------- ---------------- ----------------
     0.0000000000     0.0000000000     0.0000000000



                                Z-matrix (autoz)
                                -------- 

 Units are Angstrom for bonds and degrees for angles

      Type          Name      I     J     K     L     M      Value
      ----------- --------  ----- ----- ----- ----- ----- ----------
    1 Stretch                  1     2                       0.76089


            XYZ format geometry
            -------------------
     2
 geometry
 h                     0.00000000     0.00000000    -0.38044621
 h                     0.00000000     0.00000000     0.38044621



 Summary of "ao basis" -> "" (spherical)
 ------------------------------------------------------------------------------
       Tag                 Description            Shells   Functions and Types
 ---------------- ------------------------------  ------  ---------------------
 *                          cc-pvdz                   on all atoms 


                      Basis "ao basis" -> "ao basis" (spherical)
                      -----
  h (Hydrogen)
  ------------
            Exponent  Coefficients 
       -------------- ---------------------------------------------------------
  1 S  1.30100000E+01  0.019685
  1 S  1.96200000E+00  0.137977
  1 S  4.44600000E-01  0.478148

  2 S  1.22000000E-01  1.000000

  3 P  7.27000000E-01  1.000000



 Summary of "ao basis" -> "ao basis" (spherical)
 ------------------------------------------------------------------------------
       Tag                 Description            Shells   Functions and Types
 ---------------- ------------------------------  ------  ---------------------
 h                          cc-pvdz                  3        5   2s1p


                                 NWChem SCF Module
                                 -----------------



  ao basis        = "ao basis"
  functions       =    10
  atoms           =     2
  closed shells   =     1
  open shells     =     0
  charge          =   0.00
  wavefunction    = RHF 
  input vectors   = atomic
  output vectors  = ./noft_h2_dat.movecs
  use symmetry    = F
  symmetry adapt  = F


 Summary of "ao basis" -> "ao basis" (spherical)
 ------------------------------------------------------------------------------
       Tag                 Description            Shells   Functions and Types
 ---------------- ------------------------------  ------  ---------------------
 h                          cc-pvdz                  3        5   2s1p



 Forming initial guess at       0.1s


      Superposition of Atomic Density Guess
      -------------------------------------

 Sum of atomic energies:          -0.99855800

      Non-variational initial energy
      ------------------------------

 Total energy =      -0.848623
 1-e energy   =      -2.198859
 2-e energy   =       0.654766
 HOMO         =      -0.573389
 LUMO         =       0.137948


 Starting SCF solution at       0.1s



 ----------------------------------------------
         Quadratically convergent ROHF

 Convergence threshold     :          1.000E-04
 Maximum no. of iterations :           30
 Final Fock-matrix accuracy:          1.000E-07
 ----------------------------------------------

 HVD: begin file_write_ga: ./noft_h2_dat.cfock                                                                                                                                                                                                                                            
HVD: EAF_MAX_FILES: 1024
HVD: eaf_open: 0: ./noft_h2_dat.cfock
 HVD: end   file_write_ga

              iter       energy          gnorm     gmax       time
             ----- ------------------- --------- --------- --------
                 1       -1.1272509284  1.02D-01  9.70D-02      0.1
 HVD: begin file_write_ga: ./noft_h2_dat.cfock                                                                                                                                                                                                                                            
HVD: EAF_MAX_FILES: 1024
HVD: eaf_open: 0: ./noft_h2_dat.cfock
 HVD: end   file_write_ga
                 2       -1.1286276268  4.91D-03  4.41D-03      0.1
 HVD: begin file_write_ga: ./noft_h2_dat.cfock                                                                                                                                                                                                                                            
HVD: EAF_MAX_FILES: 1024
HVD: eaf_open: 0: ./noft_h2_dat.cfock
 HVD: end   file_write_ga
                 3       -1.1286294916  5.02D-07  4.46D-07      0.1


       Final RHF  results 
       ------------------ 

         Total SCF energy =     -1.128629491594
      One-electron energy =     -2.475843808619
      Two-electron energy =      0.651745108645
 Nuclear repulsion energy =      0.695469208380

        Time for solution =      0.0s


             Final eigenvalues
             -----------------

              1      
    1   -0.5862
    2    0.1934
    3    0.4843
    4    0.9226
    5    1.2907
    6    1.2907
    7    1.9366
    8    2.0293
    9    2.0293
   10    3.4887

                       ROHF Final Molecular Orbital Analysis
                       -------------------------------------

 Vector    1  Occ=2.000000D+00  E=-5.861768D-01
              MO Center=  1.3D-17, -3.8D-18,  1.5D-16, r^2= 7.3D-01
   Bfn.  Coefficient  Atom+Function         Bfn.  Coefficient  Atom+Function  
  ----- ------------  ---------------      ----- ------------  ---------------
     1      0.401244  1 H  s                  6      0.401244  2 H  s          
     2      0.178632  1 H  s                  7      0.178632  2 H  s          

 Vector    2  Occ=0.000000D+00  E= 1.934002D-01
              MO Center= -2.9D-18, -2.6D-18, -6.5D-15, r^2= 2.7D+00
   Bfn.  Coefficient  Atom+Function         Bfn.  Coefficient  Atom+Function  
  ----- ------------  ---------------      ----- ------------  ---------------
     2      1.897312  1 H  s                  7     -1.897312  2 H  s          
     1      0.154108  1 H  s                  6     -0.154108  2 H  s          

 Vector    3  Occ=0.000000D+00  E= 4.843334D-01
              MO Center=  5.5D-17,  7.2D-18,  3.8D-15, r^2= 2.3D+00
   Bfn.  Coefficient  Atom+Function         Bfn.  Coefficient  Atom+Function  
  ----- ------------  ---------------      ----- ------------  ---------------
     2     -0.727074  1 H  s                  7     -0.727074  2 H  s          
     1      0.706594  1 H  s                  6      0.706594  2 H  s          

 Vector    4  Occ=0.000000D+00  E= 9.226304D-01
              MO Center=  2.8D-18,  4.3D-18,  2.4D-15, r^2= 1.6D+00
   Bfn.  Coefficient  Atom+Function         Bfn.  Coefficient  Atom+Function  
  ----- ------------  ---------------      ----- ------------  ---------------
     2      1.604171  1 H  s                  7     -1.604171  2 H  s          
     1     -0.786584  1 H  s                  6      0.786584  2 H  s          
     5      0.392187  1 H  pz                10      0.392187  2 H  pz         

 Vector    5  Occ=0.000000D+00  E= 1.290703D+00
              MO Center= -1.5D-18, -9.3D-18,  1.7D-15, r^2= 5.8D-01
   Bfn.  Coefficient  Atom+Function         Bfn.  Coefficient  Atom+Function  
  ----- ------------  ---------------      ----- ------------  ---------------
     4      0.575067  1 H  py                 9      0.575067  2 H  py         

 Vector    6  Occ=0.000000D+00  E= 1.290703D+00
              MO Center= -1.5D-16,  2.5D-17,  1.2D-16, r^2= 5.8D-01
   Bfn.  Coefficient  Atom+Function         Bfn.  Coefficient  Atom+Function  
  ----- ------------  ---------------      ----- ------------  ---------------
     3      0.575067  1 H  px                 8      0.575067  2 H  px         

 Vector    7  Occ=0.000000D+00  E= 1.936587D+00
              MO Center=  7.6D-17,  6.3D-17, -5.6D-17, r^2= 8.1D-01
   Bfn.  Coefficient  Atom+Function         Bfn.  Coefficient  Atom+Function  
  ----- ------------  ---------------      ----- ------------  ---------------
     5      0.714165  1 H  pz                10     -0.714165  2 H  pz         
     1     -0.440130  1 H  s                  6     -0.440130  2 H  s          
     2      0.219308  1 H  s                  7      0.219308  2 H  s          

 Vector    8  Occ=0.000000D+00  E= 2.029325D+00
              MO Center=  1.9D-17,  1.8D-17, -8.0D-16, r^2= 7.6D-01
   Bfn.  Coefficient  Atom+Function         Bfn.  Coefficient  Atom+Function  
  ----- ------------  ---------------      ----- ------------  ---------------
     3      0.710323  1 H  px                 8     -0.710323  2 H  px         
     4      0.664658  1 H  py                 9     -0.664658  2 H  py         

 Vector    9  Occ=0.000000D+00  E= 2.029325D+00
              MO Center= -1.4D-18,  1.5D-18, -1.3D-15, r^2= 7.6D-01
   Bfn.  Coefficient  Atom+Function         Bfn.  Coefficient  Atom+Function  
  ----- ------------  ---------------      ----- ------------  ---------------
     4     -0.710323  1 H  py                 9      0.710323  2 H  py         
     3      0.664658  1 H  px                 8     -0.664658  2 H  px         

 Vector   10  Occ=0.000000D+00  E= 3.488682D+00
              MO Center=  2.0D-19,  1.0D-19,  1.4D-15, r^2= 7.0D-01
   Bfn.  Coefficient  Atom+Function         Bfn.  Coefficient  Atom+Function  
  ----- ------------  ---------------      ----- ------------  ---------------
     1      2.480056  1 H  s                  6     -2.480056  2 H  s          
     5      1.968794  1 H  pz                10      1.968794  2 H  pz         


 center of mass
 --------------
 x =   0.00000000 y =   0.00000000 z =   0.00000000

 moments of inertia (a.u.)
 ------------------
           1.041835900058           0.000000000000           0.000000000000
           0.000000000000           1.041835900058           0.000000000000
           0.000000000000           0.000000000000           0.000000000000

  Mulliken analysis of the total density
  --------------------------------------

    Atom       Charge   Shell Charges
 -----------   ------   -------------------------------------------------------
    1 H    1     1.00   0.69  0.30  0.01
    2 H    1     1.00   0.69  0.30  0.01

       Multipole analysis of the density wrt the origin
       ------------------------------------------------

     L   x y z        total         open         nuclear
     -   - - -        -----         ----         -------
     0   0 0 0      0.000000      0.000000      2.000000

     1   1 0 0     -0.000000      0.000000      0.000000
     1   0 1 0      0.000000      0.000000      0.000000
     1   0 0 1     -0.000000      0.000000      0.000000

     2   2 0 0     -1.535838      0.000000      0.000000
     2   1 1 0     -0.000000      0.000000      0.000000
     2   1 0 1      0.000000      0.000000      0.000000
     2   0 2 0     -1.535838      0.000000      0.000000
     2   0 1 1      0.000000      0.000000      0.000000
     2   0 0 2     -1.075129      0.000000      1.033747


 Task  times  cpu:        0.0s     wall:        0.0s


                                NWChem Input Module
                                -------------------



                                NWChem NOFT Module
                                ------------------


                      Basis "ao basis" -> "ao basis" (spherical)
                      -----
  h (Hydrogen)
  ------------
            Exponent  Coefficients 
       -------------- ---------------------------------------------------------
  1 S  1.30100000E+01  0.163548
  1 S  1.96200000E+00  0.277418
  1 S  4.44600000E-01  0.315749

  2 S  1.22000000E-01  0.147123

  3 P  7.27000000E-01  0.956881



                         Geometry "geometry" -> "geometry"
                         ---------------------------------

 Output coordinates in angstroms (scale by  1.889725989 to convert to a.u.)

  No.       Tag          Charge          X              Y              Z
 ---- ---------------- ---------- -------------- -------------- --------------
    1 h                    1.0000     0.00000000     0.00000000    -0.38044621
    2 h                    1.0000     0.00000000     0.00000000     0.38044621

      Atomic Mass 
      ----------- 

      h                  1.007825


 Effective nuclear repulsion energy (a.u.)       0.6954692084

            Nuclear Dipole moment (a.u.) 
            ----------------------------
        X                 Y               Z
 ---------------- ---------------- ----------------
     0.0000000000     0.0000000000     0.0000000000



                                Z-matrix (autoz)
                                -------- 

 Units are Angstrom for bonds and degrees for angles

      Type          Name      I     J     K     L     M      Value
      ----------- --------  ----- ----- ----- ----- ----- ----------
    1 Stretch                  1     2                       0.76089

Vector filenames
================

Inputs:

orthogonal: ./noft_h2_dat.svecs
orbitals  : ./noft_h2_dat.mvecs
tilde     : ./noft_h2_dat.tvecs
movecs    : ./noft_h2_dat.movecs

Outputs:

orthogonal: ./noft_h2_dat.svecs
orbitals  : ./noft_h2_dat.mvecs
tilde     : ./noft_h2_dat.tvecs
movecs    : ./noft_h2_dat.movecs

 nwchem basis set
 ics=  1 ib=  0 nat=  1 shz=  1 gc=  0 ie=  3 lcf=  1 fcf=  0 type= 1
 ics=  2 ib=  3 nat=  1 shz=  1 gc=  0 ie=  4 lcf=  2 fcf=  1 type= 1
 ics=  3 ib=  4 nat=  1 shz=  3 gc=  0 ie=  5 lcf=  5 fcf=  2 type= 2
 ics=  4 ib=  5 nat=  2 shz=  1 gc=  0 ie=  8 lcf=  6 fcf=  5 type= 1
 ics=  5 ib=  8 nat=  2 shz=  1 gc=  0 ie=  9 lcf=  7 fcf=  6 type= 1
 ics=  6 ib=  9 nat=  2 shz=  3 gc=  0 ie= 10 lcf= 10 fcf=  7 type= 2
 texas basis set
 ics=  1 ib=  0 nat=  1 shz=  1 gc=  0 ie=  3 lcf=  1 fcf=  0 type= 1
 ics=  2 ib=  5 nat=  2 shz=  1 gc=  0 ie=  8 lcf=  2 fcf=  1 type= 1
 ics=  3 ib=  3 nat=  1 shz=  1 gc=  0 ie=  4 lcf=  3 fcf=  2 type= 1
 ics=  4 ib=  8 nat=  2 shz=  1 gc=  0 ie=  9 lcf=  4 fcf=  3 type= 1
 ics=  5 ib=  4 nat=  1 shz=  3 gc=  0 ie=  5 lcf=  7 fcf=  4 type= 2
 ics=  6 ib=  9 nat=  2 shz=  3 gc=  0 ie= 10 lcf= 10 fcf=  7 type= 2
 translation shell-nwchem -> shell-texas
                    1                    1
                    2                    3
                    3                    5
                    4                    2
                    5                    4
                    6                    6

 Read molecular orbitals from ./noft_h2_dat.movecs

       0       0       0       0            1.5708      1.5708      -1.12862949       0.6955      -2.4758       0.6517       0.0000       0.0000       0.0000
       1       2       1      52  to_a      1.5708      0.0606      -1.13167565       0.6955      -2.4706       0.6498       0.0000      -0.0064       0.0000
       1       3       1     105  to_a      1.5708      0.0461      -1.13498086       0.6955      -2.4668       0.6490       0.0000      -0.0126       0.0000
       1       4       1     158  to_a      1.5708      0.0174      -1.13580121       0.6955      -2.4661       0.6489       0.0000      -0.0141       0.0000
       1       5       1     209  to_a      1.5708      0.0408      -1.14183253       0.6955      -2.4616       0.6489       0.0000      -0.0246       0.0000
       1       6       1     260  to_a      1.5708      0.0385      -1.14637476       0.6955      -2.4576       0.6489       0.0000      -0.0332       0.0000
       1       3       1     603  mo_a      1.5708      0.0026      -1.14638725       0.6955      -2.4592       0.6505       0.0000      -0.0332       0.0000
       1       3       2     657  mo_a      1.5708      0.7753      -1.14865986       0.6955      -2.4589       0.6506       0.0000      -0.0358       0.0000
       1       4       1     712  mo_a      1.5708      0.0005      -1.14866055       0.6955      -2.4589       0.6506       0.0000      -0.0358       0.0000
       1       4       2     759  mo_a      1.5708      0.9164      -1.15105155       0.6955      -2.4585       0.6519       0.0000      -0.0399       0.0000
       1       4       3     814  mo_a      1.5708      0.1075      -1.15108479       0.6955      -2.4585       0.6518       0.0000      -0.0399       0.0000
       1       7       1    1333  mo_a      1.5708      0.0018      -1.15109887       0.6955      -2.4581       0.6515       0.0000      -0.0399       0.0000
       1       7       2    1387  mo_a      1.5708      0.0026      -1.15109898       0.6955      -2.4581       0.6515       0.0000      -0.0399       0.0000
       1       7       3    1442  mo_a      1.5708      0.2586      -1.15233880       0.6955      -2.4579       0.6516       0.0000      -0.0415       0.0000
       1       7       4    1496  mo_a      1.5708      0.0220      -1.15234297       0.6955      -2.4579       0.6516       0.0000      -0.0415       0.0000
       1       7       5    1554  mo_a      1.5708      0.0000      -1.15234297       0.6955      -2.4579       0.6516       0.0000      -0.0415       0.0000
       1       8       5    1892  mo_a      1.5708      0.0297      -1.15235657       0.6955      -2.4579       0.6516       0.0000      -0.0415       0.0000
       1       8       6    1945  mo_a      1.5708      0.0087      -1.15235786       0.6955      -2.4579       0.6516       0.0000      -0.0415       0.0000
       1       9       5    2231  mo_a      1.5708      0.0297      -1.15237353       0.6955      -2.4579       0.6516       0.0000      -0.0416       0.0000
       1       9       6    2286  mo_a      1.5708      0.0229      -1.15238126       0.6955      -2.4579       0.6516       0.0000      -0.0416       0.0000
       1      10       1    2343  mo_a      1.5708      0.0000      -1.15238126       0.6955      -2.4579       0.6516       0.0000      -0.0416       0.0000
       1      10       2    2394  mo_a      1.5708      0.1074      -1.15273121       0.6955      -2.4579       0.6518       0.0000      -0.0421       0.0000
       1      10       3    2448  mo_a      1.5708      0.0165      -1.15273689       0.6955      -2.4579       0.6518       0.0000      -0.0421       0.0000
       1      10       4    2503  mo_a      1.5708      0.0408      -1.15274759       0.6955      -2.4579       0.6518       0.0000      -0.0421       0.0000
       2       2       1    2671  to_a      0.0606      0.0438      -1.15501865       0.6955      -2.4455       0.6515       0.0000      -0.0565       0.0000
       2       3       1    2716  to_a      0.0461      0.0328      -1.15555996       0.6955      -2.4385       0.6497       0.0000      -0.0623       0.0000
       2       4       1    2758  to_a      0.0174      0.0174      -1.15666373       0.6955      -2.4392       0.6499       0.0000      -0.0629       0.0000
       2       5       1    2800  to_a      0.0408      0.0093      -1.15684921       0.6955      -2.4410       0.6499       0.0000      -0.0612       0.0000
       2       6       1    2842  to_a      0.0385      0.0066      -1.15694787       0.6955      -2.4422       0.6499       0.0000      -0.0601       0.0000
       2       3       1    2900  mo_a      0.0026      0.0001      -1.15694788       0.6955      -2.4423       0.6499       0.0000      -0.0601       0.0000
       2       3       2    2951  mo_a      0.7753      0.2076      -1.15815280       0.6955      -2.4429       0.6500       0.0000      -0.0607       0.0000
       2       4       1    2996  mo_a      0.0005      0.0067      -1.15823553       0.6955      -2.4453       0.6526       0.0000      -0.0609       0.0000
       2       4       2    3049  mo_a      0.9164      0.0572      -1.15830048       0.6955      -2.4457       0.6523       0.0000      -0.0605       0.0000
       2       4       3    3098  mo_a      0.1075      0.4546      -1.16086683       0.6955      -2.4463       0.6531       0.0000      -0.0631       0.0000
       2       6       5    3171  mo_a      1.5708      1.2708      -1.16086825       0.6955      -2.4463       0.6531       0.0000      -0.0631       0.0000
       2       7       1    3204  mo_a      0.0018      0.0006      -1.16086978       0.6955      -2.4462       0.6530       0.0000      -0.0631       0.0000
       2       7       2    3288  mo_a      0.0026      0.1225      -1.16155498       0.6955      -2.4466       0.6531       0.0000      -0.0635       0.0000
       2       7       3    3335  mo_a      0.2586      0.0427      -1.16162614       0.6955      -2.4464       0.6532       0.0000      -0.0639       0.0000
       2       7       4    3382  mo_a      0.0220      0.0767      -1.16162684       0.6955      -2.4464       0.6532       0.0000      -0.0639       0.0000
       2       8       5    3438  mo_a      0.0297      0.0046      -1.16162715       0.6955      -2.4464       0.6532       0.0000      -0.0639       0.0000
       2       8       6    3479  mo_a      0.0087      0.0062      -1.16162780       0.6955      -2.4464       0.6532       0.0000      -0.0639       0.0000
       2       9       5    3530  mo_a      0.0297      0.0015      -1.16162784       0.6955      -2.4464       0.6532       0.0000      -0.0639       0.0000
       2       9       6    3572  mo_a      0.0229      0.0087      -1.16162893       0.6955      -2.4464       0.6532       0.0000      -0.0639       0.0000
       2      10       1    3602  mo_a      0.0000      0.0001      -1.16162895       0.6955      -2.4464       0.6532       0.0000      -0.0639       0.0000
       2      10       2    3646  mo_a      0.1074      0.0368      -1.16173861       0.6955      -2.4466       0.6530       0.0000      -0.0637       0.0000
       2      10       3    3691  mo_a      0.0165      0.0884      -1.16216110       0.6955      -2.4465       0.6531       0.0000      -0.0642       0.0000
       2      10       4    3747  mo_a      0.0408      0.4443      -1.16218772       0.6955      -2.4465       0.6531       0.0000      -0.0643       0.0000
       3       2       1    3801  to_a      0.0438      0.0145      -1.16261680       0.6955      -2.4416       0.6529       0.0000      -0.0694       0.0000
       3       3       1    4047  mo_a      0.0001      0.0019      -1.16262381       0.6955      -2.4427       0.6540       0.0000      -0.0694       0.0000
       3       3       2    4096  mo_a      0.2076      0.0888      -1.16272091       0.6955      -2.4430       0.6541       0.0000      -0.0694       0.0000
       3       4       1    4134  mo_a      0.0067      0.0013      -1.16272572       0.6955      -2.4428       0.6540       0.0000      -0.0693       0.0000
       3       4       2    4181  mo_a      0.0572      0.0463      -1.16282544       0.6955      -2.4431       0.6538       0.0000      -0.0690       0.0000
       3       4       3    4232  mo_a      0.4546      0.0428      -1.16286716       0.6955      -2.4432       0.6539       0.0000      -0.0690       0.0000
       3       6       5    4300  mo_a      1.2708      0.1032      -1.16286718       0.6955      -2.4432       0.6539       0.0000      -0.0690       0.0000
       3       7       1    4333  mo_a      0.0006      0.0010      -1.16287114       0.6955      -2.4431       0.6538       0.0000      -0.0690       0.0000
       3       7       2    4381  mo_a      0.1225      0.0085      -1.16287517       0.6955      -2.4431       0.6538       0.0000      -0.0691       0.0000
       3       7       3    4424  mo_a      0.0427      0.0143      -1.16288362       0.6955      -2.4432       0.6538       0.0000      -0.0690       0.0000
       3       8       5    4476  mo_a      0.0046      0.0065      -1.16288428       0.6955      -2.4432       0.6538       0.0000      -0.0690       0.0000
       3       8       6    4514  mo_a      0.0062      0.0060      -1.16288489       0.6955      -2.4432       0.6538       0.0000      -0.0690       0.0000
       3       9       5    4566  mo_a      0.0015      0.0080      -1.16288595       0.6955      -2.4432       0.6538       0.0000      -0.0690       0.0000
       3       9       6    4607  mo_a      0.0087      0.0093      -1.16288729       0.6955      -2.4432       0.6538       0.0000      -0.0690       0.0000
       3      10       1    4652  mo_a      0.0001      0.0010      -1.16289335       0.6955      -2.4432       0.6538       0.0000      -0.0690       0.0000
       3      10       2    4694  mo_a      0.0368      0.0528      -1.16313821       0.6955      -2.4436       0.6534       0.0000      -0.0684       0.0000
       3      10       3    4736  mo_a      0.0884      0.0254      -1.16316884       0.6955      -2.4436       0.6534       0.0000      -0.0685       0.0000
       4       2       1    4791  to_a      0.0145      0.0112      -1.16327916       0.6955      -2.4397       0.6532       0.0000      -0.0723       0.0000
       4       3       1    5049  mo_a      0.0019      0.0001      -1.16327919       0.6955      -2.4396       0.6532       0.0000      -0.0723       0.0000
       4       3       2    5098  mo_a      0.0888      0.0124      -1.16328086       0.6955      -2.4396       0.6532       0.0000      -0.0723       0.0000
       4       4       1    5130  mo_a      0.0013      0.0013      -1.16328609       0.6955      -2.4395       0.6531       0.0000      -0.0723       0.0000
       4       4       2    5176  mo_a      0.0463      0.0392      -1.16336860       0.6955      -2.4399       0.6529       0.0000      -0.0719       0.0000
       4       4       3    5221  mo_a      0.0428      0.0194      -1.16337781       0.6955      -2.4399       0.6529       0.0000      -0.0718       0.0000
       4       6       5    5287  mo_a      0.1032      0.2488      -1.16337790       0.6955      -2.4399       0.6529       0.0000      -0.0718       0.0000
       4       7       1    5320  mo_a      0.0010      0.0004      -1.16337855       0.6955      -2.4399       0.6529       0.0000      -0.0719       0.0000
       4       7       2    5359  mo_a      0.0085      0.0022      -1.16337886       0.6955      -2.4399       0.6529       0.0000      -0.0719       0.0000
       4       7       3    5401  mo_a      0.0143      0.0161      -1.16338990       0.6955      -2.4399       0.6528       0.0000      -0.0718       0.0000
       4       7       4    5445  mo_a      0.0767      0.0185      -1.16338994       0.6955      -2.4399       0.6528       0.0000      -0.0718       0.0000
       4       8       5    5495  mo_a      0.0065      0.0013      -1.16338997       0.6955      -2.4399       0.6528       0.0000      -0.0718       0.0000
       4       8       6    5536  mo_a      0.0060      0.0056      -1.16339046       0.6955      -2.4400       0.6528       0.0000      -0.0718       0.0000
       4       9       5    5585  mo_a      0.0080      0.0028      -1.16339058       0.6955      -2.4400       0.6528       0.0000      -0.0718       0.0000
       4       9       6    5623  mo_a      0.0093      0.0042      -1.16339090       0.6955      -2.4400       0.6528       0.0000      -0.0718       0.0000
       4      10       1    5661  mo_a      0.0010      0.0006      -1.16339271       0.6955      -2.4399       0.6528       0.0000      -0.0718       0.0000
       4      10       2    5705  mo_a      0.0528      0.0227      -1.16344495       0.6955      -2.4401       0.6527       0.0000      -0.0714       0.0000
       4      10       3    5749  mo_a      0.0254      0.0106      -1.16345030       0.6955      -2.4401       0.6527       0.0000      -0.0715       0.0000
       4      10       4    5799  mo_a      0.4443      0.1255      -1.16345208       0.6955      -2.4401       0.6527       0.0000      -0.0715       0.0000
       5       2       1    5848  to_a      0.0112      0.0038      -1.16346705       0.6955      -2.4387       0.6526       0.0000      -0.0728       0.0000
       5       3       1    6100  mo_a      0.0001      0.0004      -1.16346729       0.6955      -2.4385       0.6524       0.0000      -0.0728       0.0000
       5       3       2    6142  mo_a      0.0124      0.0174      -1.16347024       0.6955      -2.4385       0.6523       0.0000      -0.0728       0.0000
       5       4       1    6177  mo_a      0.0013      0.0007      -1.16347177       0.6955      -2.4384       0.6523       0.0000      -0.0728       0.0000
       5       4       2    6222  mo_a      0.0392      0.0191      -1.16349575       0.6955      -2.4386       0.6522       0.0000      -0.0726       0.0000
       5       4       3    6261  mo_a      0.0194      0.0016      -1.16349582       0.6955      -2.4386       0.6522       0.0000      -0.0726       0.0000
       5       7       1    6309  mo_a      0.0004      0.0000      -1.16349582       0.6955      -2.4386       0.6522       0.0000      -0.0726       0.0000
       5       7       2    6345  mo_a      0.0022      0.0006      -1.16349584       0.6955      -2.4386       0.6522       0.0000      -0.0726       0.0000
       5       7       3    6385  mo_a      0.0161      0.0071      -1.16349799       0.6955      -2.4386       0.6522       0.0000      -0.0726       0.0000
       5       7       4    6427  mo_a      0.0185      0.0102      -1.16349800       0.6955      -2.4386       0.6522       0.0000      -0.0726       0.0000
       5       8       5    6476  mo_a      0.0013      0.0006      -1.16349801       0.6955      -2.4386       0.6522       0.0000      -0.0726       0.0000
       5       8       6    6513  mo_a      0.0056      0.0018      -1.16349806       0.6955      -2.4386       0.6522       0.0000      -0.0726       0.0000
       5       9       5    6562  mo_a      0.0028      0.0002      -1.16349806       0.6955      -2.4386       0.6522       0.0000      -0.0726       0.0000
       5       9       6    6596  mo_a      0.0042      0.0011      -1.16349808       0.6955      -2.4386       0.6522       0.0000      -0.0726       0.0000
       5      10       1    6633  mo_a      0.0006      0.0004      -1.16349882       0.6955      -2.4386       0.6522       0.0000      -0.0726       0.0000
       5      10       2    6680  mo_a      0.0227      0.0124      -1.16351381       0.6955      -2.4387       0.6521       0.0000      -0.0724       0.0000
       5      10       3    6717  mo_a      0.0106      0.0043      -1.16351462       0.6955      -2.4387       0.6521       0.0000      -0.0724       0.0000
       5      10       4    6761  mo_a      0.1255      0.0323      -1.16351475       0.6955      -2.4387       0.6521       0.0000      -0.0724       0.0000
       6       2       1    6807  to_a      0.0038      0.0011      -1.16351611       0.6955      -2.4383       0.6521       0.0000      -0.0728       0.0000
       6       3       1    7062  mo_a      0.0004      0.0003      -1.16351634       0.6955      -2.4381       0.6519       0.0000      -0.0728       0.0000
       6       3       2    7104  mo_a      0.0174      0.0227      -1.16352145       0.6955      -2.4380       0.6518       0.0000      -0.0728       0.0000
       6       4       1    7137  mo_a      0.0007      0.0003      -1.16352190       0.6955      -2.4380       0.6518       0.0000      -0.0728       0.0000
       6       4       2    7176  mo_a      0.0191      0.0130      -1.16353364       0.6955      -2.4381       0.6518       0.0000      -0.0727       0.0000
       6       4       3    7216  mo_a      0.0016      0.0052      -1.16353448       0.6955      -2.4381       0.6518       0.0000      -0.0727       0.0000
       6       7       2    7267  mo_a      0.0006      0.0008      -1.16353452       0.6955      -2.4381       0.6517       0.0000      -0.0727       0.0000
       6       7       3    7304  mo_a      0.0071      0.0038      -1.16353515       0.6955      -2.4381       0.6517       0.0000      -0.0727       0.0000
       6       7       4    7342  mo_a      0.0102      0.0001      -1.16353515       0.6955      -2.4381       0.6517       0.0000      -0.0727       0.0000
       6       8       6    7389  mo_a      0.0018      0.0004      -1.16353515       0.6955      -2.4381       0.6517       0.0000      -0.0727       0.0000
       6       9       6    7431  mo_a      0.0011      0.0002      -1.16353515       0.6955      -2.4381       0.6517       0.0000      -0.0727       0.0000
       6      10       1    7470  mo_a      0.0004      0.0002      -1.16353535       0.6955      -2.4381       0.6517       0.0000      -0.0727       0.0000
       6      10       2    7511  mo_a      0.0124      0.0068      -1.16353974       0.6955      -2.4381       0.6517       0.0000      -0.0726       0.0000
       6      10       3    7548  mo_a      0.0043      0.0017      -1.16353987       0.6955      -2.4381       0.6517       0.0000      -0.0726       0.0000
       6      10       4    7591  mo_a      0.0323      0.0212      -1.16353993       0.6955      -2.4381       0.6517       0.0000      -0.0726       0.0000
       7       2       1    7633  to_a      0.0011      0.0003      -1.16354005       0.6955      -2.4380       0.6517       0.0000      -0.0727       0.0000
       7       3       1    7886  mo_a      0.0003      0.0002      -1.16354016       0.6955      -2.4379       0.6515       0.0000      -0.0727       0.0000
       7       3       2    7930  mo_a      0.0227      0.0211      -1.16354475       0.6955      -2.4378       0.6515       0.0000      -0.0727       0.0000
       7       4       2    7974  mo_a      0.0130      0.0088      -1.16355024       0.6955      -2.4378       0.6515       0.0000      -0.0726       0.0000
       7       4       3    8013  mo_a      0.0052      0.0052      -1.16355109       0.6955      -2.4378       0.6515       0.0000      -0.0727       0.0000
       7       7       1    8080  mo_a      0.0000      0.0002      -1.16355129       0.6955      -2.4378       0.6515       0.0000      -0.0727       0.0000
       7       7       2    8116  mo_a      0.0008      0.0006      -1.16355132       0.6955      -2.4378       0.6515       0.0000      -0.0727       0.0000
       7       7       3    8156  mo_a      0.0038      0.0020      -1.16355149       0.6955      -2.4379       0.6515       0.0000      -0.0726       0.0000
       7      10       1    8222  mo_a      0.0002      0.0000      -1.16355149       0.6955      -2.4379       0.6515       0.0000      -0.0726       0.0000
       7      10       2    8259  mo_a      0.0068      0.0039      -1.16355296       0.6955      -2.4379       0.6514       0.0000      -0.0726       0.0000
       7      10       4    8305  mo_a      0.0212      0.0139      -1.16355299       0.6955      -2.4379       0.6514       0.0000      -0.0726       0.0000
       8       2       1    8343  to_a      0.0003      0.0001      -1.16355299       0.6955      -2.4379       0.6514       0.0000      -0.0725       0.0000
       8       3       1    8597  mo_a      0.0002      0.0003      -1.16355312       0.6955      -2.4378       0.6513       0.0000      -0.0725       0.0000
       8       3       2    8642  mo_a      0.0211      0.0161      -1.16355592       0.6955      -2.4377       0.6513       0.0000      -0.0726       0.0000
       8       4       1    8673  mo_a      0.0003      0.0002      -1.16355609       0.6955      -2.4377       0.6512       0.0000      -0.0726       0.0000
       8       4       2    8713  mo_a      0.0088      0.0060      -1.16355869       0.6955      -2.4377       0.6512       0.0000      -0.0725       0.0000
       8       4       3    8750  mo_a      0.0052      0.0040      -1.16355922       0.6955      -2.4377       0.6512       0.0000      -0.0725       0.0000
       8       7       1    8798  mo_a      0.0002      0.0001      -1.16355926       0.6955      -2.4377       0.6512       0.0000      -0.0725       0.0000
       8       7       2    8833  mo_a      0.0006      0.0006      -1.16355929       0.6955      -2.4377       0.6512       0.0000      -0.0725       0.0000
       8       7       3    8871  mo_a      0.0020      0.0010      -1.16355933       0.6955      -2.4377       0.6512       0.0000      -0.0725       0.0000
       8      10       1    8936  mo_a      0.0000      0.0001      -1.16355940       0.6955      -2.4377       0.6512       0.0000      -0.0725       0.0000
       8      10       2    8974  mo_a      0.0039      0.0024      -1.16355995       0.6955      -2.4377       0.6512       0.0000      -0.0725       0.0000
       8      10       3    9011  mo_a      0.0017      0.0012      -1.16356001       0.6955      -2.4377       0.6512       0.0000      -0.0725       0.0000
       9       2       1    9052  to_a      0.0001      0.0001      -1.16356003       0.6955      -2.4378       0.6512       0.0000      -0.0725       0.0000
       9       3       1    9304  mo_a      0.0003      0.0001      -1.16356007       0.6955      -2.4377       0.6511       0.0000      -0.0725       0.0000
       9       3       2    9348  mo_a      0.0161      0.0122      -1.16356172       0.6955      -2.4376       0.6511       0.0000      -0.0725       0.0000
       9       4       1    9379  mo_a      0.0002      0.0001      -1.16356175       0.6955      -2.4376       0.6511       0.0000      -0.0725       0.0000
       9       4       2    9420  mo_a      0.0060      0.0042      -1.16356300       0.6955      -2.4377       0.6511       0.0000      -0.0724       0.0000
       9       4       3    9459  mo_a      0.0040      0.0021      -1.16356315       0.6955      -2.4377       0.6511       0.0000      -0.0725       0.0000
       9       7       1    9504  mo_a      0.0001      0.0001      -1.16356317       0.6955      -2.4377       0.6511       0.0000      -0.0725       0.0000
       9       7       3    9539  mo_a      0.0010      0.0006      -1.16356318       0.6955      -2.4377       0.6511       0.0000      -0.0724       0.0000
       9      10       1    9601  mo_a      0.0001      0.0001      -1.16356319       0.6955      -2.4377       0.6511       0.0000      -0.0724       0.0000
       9      10       2    9634  mo_a      0.0024      0.0016      -1.16356342       0.6955      -2.4377       0.6511       0.0000      -0.0724       0.0000
       9      10       4    9678  mo_a      0.0139      0.0159      -1.16356346       0.6955      -2.4377       0.6511       0.0000      -0.0724       0.0000
      10       2       1    9717  to_a      0.0001      0.0002      -1.16356348       0.6955      -2.4377       0.6511       0.0000      -0.0724       0.0000
      10       3       1    9967  mo_a      0.0001      0.0001      -1.16356351       0.6955      -2.4377       0.6510       0.0000      -0.0724       0.0000
      10       3       2   10008  mo_a      0.0122      0.0077      -1.16356418       0.6955      -2.4376       0.6510       0.0000      -0.0724       0.0000
      10       4       2   10048  mo_a      0.0042      0.0027      -1.16356470       0.6955      -2.4377       0.6510       0.0000      -0.0724       0.0000
      10       4       3   10085  mo_a      0.0021      0.0016      -1.16356479       0.6955      -2.4377       0.6510       0.0000      -0.0724       0.0000
      10       7       1   10130  mo_a      0.0001      0.0001      -1.16356480       0.6955      -2.4377       0.6510       0.0000      -0.0724       0.0000
      10       7       2   10164  mo_a      0.0006      0.0005      -1.16356481       0.6955      -2.4377       0.6510       0.0000      -0.0724       0.0000
      10       7       3   10196  mo_a      0.0006      0.0005      -1.16356482       0.6955      -2.4377       0.6510       0.0000      -0.0724       0.0000
      10      10       1   10258  mo_a      0.0001      0.0000      -1.16356482       0.6955      -2.4377       0.6510       0.0000      -0.0724       0.0000
      10      10       2   10296  mo_a      0.0016      0.0010      -1.16356491       0.6955      -2.4377       0.6510       0.0000      -0.0723       0.0000
      10      10       3   10327  mo_a      0.0012      0.0008      -1.16356494       0.6955      -2.4377       0.6510       0.0000      -0.0723       0.0000
      10      10       4   10367  mo_a      0.0159      0.0043      -1.16356494       0.6955      -2.4377       0.6510       0.0000      -0.0723       0.0000
      11       3       1   10630  mo_a      0.0001      0.0001      -1.16356495       0.6955      -2.4376       0.6509       0.0000      -0.0723       0.0000
      11       3       2   10670  mo_a      0.0077      0.0051      -1.16356525       0.6955      -2.4376       0.6509       0.0000      -0.0724       0.0000
      11       4       2   10712  mo_a      0.0027      0.0017      -1.16356548       0.6955      -2.4376       0.6509       0.0000      -0.0723       0.0000
      11       4       3   10745  mo_a      0.0016      0.0007      -1.16356549       0.6955      -2.4376       0.6509       0.0000      -0.0723       0.0000
      11       7       3   10800  mo_a      0.0005      0.0002      -1.16356549       0.6955      -2.4376       0.6509       0.0000      -0.0723       0.0000
      11      10       2   10874  mo_a      0.0010      0.0007      -1.16356554       0.6955      -2.4376       0.6509       0.0000      -0.0723       0.0000
      12       2       1   10916  to_a      0.0002      0.0002      -1.16356557       0.6955      -2.4377       0.6509       0.0000      -0.0723       0.0000
      12       3       1   11166  mo_a      0.0001      0.0000      -1.16356558       0.6955      -2.4377       0.6509       0.0000      -0.0723       0.0000
      12       3       2   11204  mo_a      0.0051      0.0034      -1.16356571       0.6955      -2.4376       0.6509       0.0000      -0.0723       0.0000
      12       4       1   11232  mo_a      0.0001      0.0001      -1.16356572       0.6955      -2.4376       0.6509       0.0000      -0.0723       0.0000
      12       4       2   11268  mo_a      0.0017      0.0011      -1.16356582       0.6955      -2.4376       0.6509       0.0000      -0.0723       0.0000
      12       4       3   11300  mo_a      0.0007      0.0006      -1.16356583       0.6955      -2.4376       0.6509       0.0000      -0.0723       0.0000
      12       7       1   11346  mo_a      0.0001      0.0001      -1.16356584       0.6955      -2.4376       0.6509       0.0000      -0.0723       0.0000
      12      10       2   11421  mo_a      0.0007      0.0003      -1.16356585       0.6955      -2.4376       0.6509       0.0000      -0.0723       0.0000
      13       3       1   11688  mo_a      0.0000      0.0000      -1.16356586       0.6955      -2.4376       0.6509       0.0000      -0.0723       0.0000
      13       3       2   11728  mo_a      0.0034      0.0020      -1.16356590       0.6955      -2.4376       0.6509       0.0000      -0.0723       0.0000
      13       4       1   11755  mo_a      0.0001      0.0000      -1.16356590       0.6955      -2.4376       0.6509       0.0000      -0.0723       0.0000
      13       4       2   11790  mo_a      0.0011      0.0007      -1.16356594       0.6955      -2.4376       0.6509       0.0000      -0.0723       0.0000
      13      10       2   11885  mo_a      0.0003      0.0002      -1.16356594       0.6955      -2.4376       0.6508       0.0000      -0.0723       0.0000
      13      10       3   11920  mo_a      0.0008      0.0007      -1.16356596       0.6955      -2.4376       0.6509       0.0000      -0.0723       0.0000
      14       3       2   12197  mo_a      0.0020      0.0012      -1.16356598       0.6955      -2.4376       0.6508       0.0000      -0.0723       0.0000
      14      10       3   12303  mo_a      0.0007      0.0001      -1.16356598       0.6955      -2.4376       0.6508       0.0000      -0.0723       0.0000
      15       2       1   12345  to_a      0.0002      0.0001      -1.16356600       0.6955      -2.4377       0.6509       0.0000      -0.0722       0.0000
      15       3       2   12601  mo_a      0.0012      0.0005      -1.16356600       0.6955      -2.4377       0.6509       0.0000      -0.0722       0.0000
      15       4       2   12635  mo_a      0.0007      0.0005      -1.16356602       0.6955      -2.4377       0.6509       0.0000      -0.0722       0.0000
      15      10       2   12729  mo_a      0.0002      0.0001      -1.16356602       0.6955      -2.4377       0.6508       0.0000      -0.0722       0.0000
      16       2       1   12770  to_a      0.0001      0.0000      -1.16356602       0.6955      -2.4377       0.6508       0.0000      -0.0722       0.0000
      16       4       2   13030  mo_a      0.0005      0.0001      -1.16356602       0.6955      -2.4377       0.6508       0.0000      -0.0722       0.0000
      17       3       2   13370  mo_a      0.0005      0.0008      -1.16356603       0.6955      -2.4377       0.6508       0.0000      -0.0722       0.0000

 ======================
 Calculation converged!
 ======================


 Wrote molecular orbitals to ./noft_h2_dat.svecs


 Wrote molecular orbitals to ./noft_h2_dat.mvecs


 Wrote molecular orbitals to ./noft_h2_dat.tvecs


 Wrote molecular orbitals to ./noft_h2_dat.movecs

  mo #   alpha occ   beta  occ
  ====   =========   =========
     1    0.973890    0.973890
     2    0.017940    0.017940
     3    0.006180    0.006180
     4    0.000000    0.000000
     5    0.000985    0.000985
     6    0.001005    0.001005
     7    0.000000    0.000000
     8    0.000000    0.000000
     9    0.000000    0.000000
    10    0.000000    0.000000

  dim1 dim2                    60                   10
  rlo rhi                     1                   60
  clo chi                     1                   10
  using                     1  nodes out of                     1

                                     alpha mos
                                     ---------

 Vector    1  Occ=9.738901D-01
              MO Center= -1.2D-12, -7.5D-12, -3.3D-04, r^2= 7.2D-01
   Bfn.  Coefficient  Atom+Function         Bfn.  Coefficient  Atom+Function  
  ----- ------------  ---------------      ----- ------------  ---------------
     1      0.406304  1 H  s                  6      0.408009  2 H  s          
     2      0.173566  1 H  s                  7      0.172912  2 H  s          
    10     -0.020970  2 H  pz                 5      0.019344  1 H  pz         

 Vector    2  Occ=1.793992D-02
              MO Center= -4.3D-12, -2.6D-11, -1.9D-01, r^2= 1.0D+00
   Bfn.  Coefficient  Atom+Function         Bfn.  Coefficient  Atom+Function  
  ----- ------------  ---------------      ----- ------------  ---------------
     6     -0.910616  2 H  s                  2      0.703232  1 H  s          
     1      0.488929  1 H  s                  7     -0.238675  2 H  s          
     5     -0.163635  1 H  pz                10     -0.066223  2 H  pz         

 Vector    3  Occ=6.180230D-03
              MO Center=  2.3D-13,  1.4D-12,  3.5D-01, r^2= 1.9D+00
   Bfn.  Coefficient  Atom+Function         Bfn.  Coefficient  Atom+Function  
  ----- ------------  ---------------      ----- ------------  ---------------
     7     -1.062498  2 H  s                  1      0.914422  1 H  s          
     5      0.294457  1 H  pz                 6      0.181876  2 H  s          
     2     -0.168693  1 H  s                 10     -0.028594  2 H  pz         

 Vector    4  Occ=1.437195D-10
              MO Center= -1.1D-12, -6.4D-12, -1.8D-01, r^2= 2.5D+00
   Bfn.  Coefficient  Atom+Function         Bfn.  Coefficient  Atom+Function  
  ----- ------------  ---------------      ----- ------------  ---------------
     2      1.982029  1 H  s                  7     -1.789952  2 H  s          
     5      1.490745  1 H  pz                10      1.479133  2 H  pz         
     6     -1.185645  2 H  s                  1      0.995298  1 H  s          

 Vector    5  Occ=9.850431D-04
              MO Center=  2.2D-11, -4.8D-12, -1.1D-02, r^2= 5.8D-01
   Bfn.  Coefficient  Atom+Function         Bfn.  Coefficient  Atom+Function  
  ----- ------------  ---------------      ----- ------------  ---------------
     3      0.580958  1 H  px                 8      0.557690  2 H  px         
     4     -0.127442  1 H  py                 9     -0.122162  2 H  py         

 Vector    6  Occ=1.004698D-03
              MO Center= -9.3D-11, -4.3D-10, -1.1D-02, r^2= 5.8D-01
   Bfn.  Coefficient  Atom+Function         Bfn.  Coefficient  Atom+Function  
  ----- ------------  ---------------      ----- ------------  ---------------
     4     -0.581494  1 H  py                 9     -0.557146  2 H  py         
     3     -0.127520  1 H  px                 8     -0.122083  2 H  px         

 Vector    7  Occ=0.000000D+00
              MO Center=  7.9D-11,  4.8D-10,  1.6D-02, r^2= 1.1D+00
   Bfn.  Coefficient  Atom+Function         Bfn.  Coefficient  Atom+Function  
  ----- ------------  ---------------      ----- ------------  ---------------
     5      0.737755  1 H  pz                 6     -0.691748  2 H  s          
    10     -0.646927  2 H  pz                 7      0.561018  2 H  s          
     1     -0.459672  1 H  s                  2      0.174007  1 H  s          

 Vector    8  Occ=0.000000D+00
              MO Center= -4.2D-12, -4.0D-12,  1.1D-02, r^2= 7.6D-01
   Bfn.  Coefficient  Atom+Function         Bfn.  Coefficient  Atom+Function  
  ----- ------------  ---------------      ----- ------------  ---------------
     8     -0.715247  2 H  px                 3      0.704775  1 H  px         
     9     -0.670052  2 H  py                 4      0.659704  1 H  py         

 Vector    9  Occ=0.000000D+00
              MO Center=  3.0D-12, -3.2D-12,  1.1D-02, r^2= 7.6D-01
   Bfn.  Coefficient  Atom+Function         Bfn.  Coefficient  Atom+Function  
  ----- ------------  ---------------      ----- ------------  ---------------
     9      0.715389  2 H  py                 4     -0.704627  1 H  py         
     8     -0.669765  2 H  px                 3      0.660004  1 H  px         

 Vector   10  Occ=0.000000D+00
              MO Center= -1.9D-13, -1.1D-12,  2.8D-03, r^2= 1.4D+00
   Bfn.  Coefficient  Atom+Function         Bfn.  Coefficient  Atom+Function  
  ----- ------------  ---------------      ----- ------------  ---------------
     1      2.281427  1 H  s                  6     -2.175796  2 H  s          
     2     -1.509195  1 H  s                  7      1.433551  2 H  s          
    10      1.388848  2 H  pz                 5      1.288578  1 H  pz         

  dim1 dim2                    60                   10
  rlo rhi                     1                   60
  clo chi                     1                   10
  using                     1  nodes out of                     1

                                     beta mos
                                     --------

 Vector    1  Occ=9.738901D-01
              MO Center= -1.2D-12, -7.5D-12, -3.3D-04, r^2= 7.2D-01
   Bfn.  Coefficient  Atom+Function         Bfn.  Coefficient  Atom+Function  
  ----- ------------  ---------------      ----- ------------  ---------------
     1      0.406304  1 H  s                  6      0.408009  2 H  s          
     2      0.173566  1 H  s                  7      0.172912  2 H  s          
    10     -0.020970  2 H  pz                 5      0.019344  1 H  pz         

 Vector    2  Occ=1.793992D-02
              MO Center= -4.3D-12, -2.6D-11, -1.9D-01, r^2= 1.0D+00
   Bfn.  Coefficient  Atom+Function         Bfn.  Coefficient  Atom+Function  
  ----- ------------  ---------------      ----- ------------  ---------------
     6     -0.910616  2 H  s                  2      0.703232  1 H  s          
     1      0.488929  1 H  s                  7     -0.238675  2 H  s          
     5     -0.163635  1 H  pz                10     -0.066223  2 H  pz         

 Vector    3  Occ=6.180230D-03
              MO Center=  2.3D-13,  1.4D-12,  3.5D-01, r^2= 1.9D+00
   Bfn.  Coefficient  Atom+Function         Bfn.  Coefficient  Atom+Function  
  ----- ------------  ---------------      ----- ------------  ---------------
     7     -1.062498  2 H  s                  1      0.914422  1 H  s          
     5      0.294457  1 H  pz                 6      0.181876  2 H  s          
     2     -0.168693  1 H  s                 10     -0.028594  2 H  pz         

 Vector    4  Occ=1.437195D-10
              MO Center= -1.1D-12, -6.4D-12, -1.8D-01, r^2= 2.5D+00
   Bfn.  Coefficient  Atom+Function         Bfn.  Coefficient  Atom+Function  
  ----- ------------  ---------------      ----- ------------  ---------------
     2      1.982029  1 H  s                  7     -1.789952  2 H  s          
     5      1.490745  1 H  pz                10      1.479133  2 H  pz         
     6     -1.185645  2 H  s                  1      0.995298  1 H  s          

 Vector    5  Occ=9.850431D-04
              MO Center=  2.2D-11, -4.8D-12, -1.1D-02, r^2= 5.8D-01
   Bfn.  Coefficient  Atom+Function         Bfn.  Coefficient  Atom+Function  
  ----- ------------  ---------------      ----- ------------  ---------------
     3      0.580958  1 H  px                 8      0.557690  2 H  px         
     4     -0.127442  1 H  py                 9     -0.122162  2 H  py         

 Vector    6  Occ=1.004698D-03
              MO Center= -9.3D-11, -4.3D-10, -1.1D-02, r^2= 5.8D-01
   Bfn.  Coefficient  Atom+Function         Bfn.  Coefficient  Atom+Function  
  ----- ------------  ---------------      ----- ------------  ---------------
     4     -0.581494  1 H  py                 9     -0.557146  2 H  py         
     3     -0.127520  1 H  px                 8     -0.122083  2 H  px         

 Vector    7  Occ=0.000000D+00
              MO Center=  7.9D-11,  4.8D-10,  1.6D-02, r^2= 1.1D+00
   Bfn.  Coefficient  Atom+Function         Bfn.  Coefficient  Atom+Function  
  ----- ------------  ---------------      ----- ------------  ---------------
     5      0.737755  1 H  pz                 6     -0.691748  2 H  s          
    10     -0.646927  2 H  pz                 7      0.561018  2 H  s          
     1     -0.459672  1 H  s                  2      0.174007  1 H  s          

 Vector    8  Occ=0.000000D+00
              MO Center= -4.2D-12, -4.0D-12,  1.1D-02, r^2= 7.6D-01
   Bfn.  Coefficient  Atom+Function         Bfn.  Coefficient  Atom+Function  
  ----- ------------  ---------------      ----- ------------  ---------------
     8     -0.715247  2 H  px                 3      0.704775  1 H  px         
     9     -0.670052  2 H  py                 4      0.659704  1 H  py         

 Vector    9  Occ=0.000000D+00
              MO Center=  3.0D-12, -3.2D-12,  1.1D-02, r^2= 7.6D-01
   Bfn.  Coefficient  Atom+Function         Bfn.  Coefficient  Atom+Function  
  ----- ------------  ---------------      ----- ------------  ---------------
     9      0.715389  2 H  py                 4     -0.704627  1 H  py         
     8     -0.669765  2 H  px                 3      0.660004  1 H  px         

 Vector   10  Occ=0.000000D+00
              MO Center= -1.9D-13, -1.1D-12,  2.8D-03, r^2= 1.4D+00
   Bfn.  Coefficient  Atom+Function         Bfn.  Coefficient  Atom+Function  
  ----- ------------  ---------------      ----- ------------  ---------------
     1      2.281427  1 H  s                  6     -2.175796  2 H  s          
     2     -1.509195  1 H  s                  7      1.433551  2 H  s          
    10      1.388848  2 H  pz                 5      1.288578  1 H  pz         


 global array: alpha tos[1:10,1:10],  handle: -994 

            1           2           3           4           5           6  
       ----------- ----------- ----------- ----------- ----------- -----------
   1       0.98686     0.13398     0.07849     0.00018     0.03150     0.03174
   2      -0.13394     0.99097    -0.00620     0.00075    -0.00150    -0.00163
   3      -0.07861    -0.00440     0.99689     0.00056    -0.00115    -0.00125
   4       0.00001    -0.00076    -0.00057     1.00000    -0.00071    -0.00067
   5      -0.03139    -0.00274    -0.00134     0.00071     0.99950    -0.00136
   6      -0.03170    -0.00264    -0.00126     0.00067     0.00036     0.99949
   7       0.00000     0.00000     0.00000     0.00000     0.00000     0.00000
   8       0.00000     0.00000     0.00000     0.00000     0.00000     0.00000
   9       0.00000     0.00000     0.00000     0.00000     0.00000     0.00000
  10       0.00000     0.00000     0.00000     0.00000     0.00000     0.00000

            7           8           9          10  
       ----------- ----------- ----------- -----------
   1       0.00000     0.00000     0.00000     0.00000
   2       0.00000     0.00000     0.00000     0.00000
   3       0.00000     0.00000     0.00000     0.00000
   4       0.00000     0.00000     0.00000     0.00000
   5       0.00000     0.00000     0.00000     0.00000
   6       0.00000     0.00000     0.00000     0.00000
   7       1.00000     0.00000     0.00000     0.00000
   8       0.00000     1.00000     0.00000     0.00000
   9       0.00000     0.00000     1.00000     0.00000
  10       0.00000     0.00000     0.00000     1.00000

 global array: beta tos[1:10,1:10],  handle: -993 

            1           2           3           4           5           6  
       ----------- ----------- ----------- ----------- ----------- -----------
   1       0.98686     0.13398     0.07849     0.00018     0.03150     0.03174
   2      -0.13394     0.99097    -0.00620     0.00075    -0.00150    -0.00163
   3      -0.07861    -0.00440     0.99689     0.00056    -0.00115    -0.00125
   4       0.00001    -0.00076    -0.00057     1.00000    -0.00071    -0.00067
   5      -0.03139    -0.00274    -0.00134     0.00071     0.99950    -0.00136
   6      -0.03170    -0.00264    -0.00126     0.00067     0.00036     0.99949
   7       0.00000     0.00000     0.00000     0.00000     0.00000     0.00000
   8       0.00000     0.00000     0.00000     0.00000     0.00000     0.00000
   9       0.00000     0.00000     0.00000     0.00000     0.00000     0.00000
  10       0.00000     0.00000     0.00000     0.00000     0.00000     0.00000

            7           8           9          10  
       ----------- ----------- ----------- -----------
   1       0.00000     0.00000     0.00000     0.00000
   2       0.00000     0.00000     0.00000     0.00000
   3       0.00000     0.00000     0.00000     0.00000
   4       0.00000     0.00000     0.00000     0.00000
   5       0.00000     0.00000     0.00000     0.00000
   6       0.00000     0.00000     0.00000     0.00000
   7       1.00000     0.00000     0.00000     0.00000
   8       0.00000     1.00000     0.00000     0.00000
   9       0.00000     0.00000     1.00000     0.00000
  10       0.00000     0.00000     0.00000     1.00000

 global array: alpha mos[1:10,1:10],  handle: -996 

            1           2           3           4           5           6  
       ----------- ----------- ----------- ----------- ----------- -----------
   1      -0.00037     0.15076     0.11301     0.53394    -0.00000    -0.00000
   2       0.00010     0.15018     0.16931     0.79256    -0.00000    -0.00000
   3      -0.16710     0.23078    -0.59554     0.10797     0.00000     0.00000
   4       0.00000    -0.00000     0.00000    -0.00000    -0.00838    -0.00939
   5      -0.00000     0.00000     0.00000     0.00000    -0.00895     0.00873
   6      -0.00031    -0.91492    -0.30231     0.26478     0.00000     0.00000
   7      -0.02056    -0.25148     0.71068    -0.06855     0.00000     0.00000
   8      -0.00000    -0.00000    -0.00000    -0.00000     0.94832    -0.31707
   9      -0.00000    -0.00000    -0.00000    -0.00000    -0.31707    -0.94832
  10      -0.98573    -0.03363     0.08621    -0.01707    -0.00000    -0.00000

            7           8           9          10  
       ----------- ----------- ----------- -----------
   1       0.03939    -0.00000     0.00000     0.82332
   2      -0.07622    -0.00000     0.00000    -0.56108
   3       0.74036     0.00000    -0.00000    -0.06603
   4      -0.00000     0.22155    -0.97507    -0.00000
   5       0.00000    -0.97507    -0.22155     0.00000
   6       0.00663     0.00000    -0.00000     0.03700
   7       0.65200     0.00000    -0.00000    -0.03825
   8       0.00000    -0.00988    -0.00734     0.00000
   9       0.00000    -0.00787     0.01007     0.00000
  10      -0.13913    -0.00000     0.00000     0.01161

 global array: beta mos[1:10,1:10],  handle: -995 

            1           2           3           4           5           6  
       ----------- ----------- ----------- ----------- ----------- -----------
   1      -0.00037     0.15076     0.11301     0.53394    -0.00000    -0.00000
   2       0.00010     0.15018     0.16931     0.79256    -0.00000    -0.00000
   3      -0.16710     0.23078    -0.59554     0.10797     0.00000     0.00000
   4       0.00000    -0.00000     0.00000    -0.00000    -0.00838    -0.00939
   5      -0.00000     0.00000     0.00000     0.00000    -0.00895     0.00873
   6      -0.00031    -0.91492    -0.30231     0.26478     0.00000     0.00000
   7      -0.02056    -0.25148     0.71068    -0.06855     0.00000     0.00000
   8      -0.00000    -0.00000    -0.00000    -0.00000     0.94832    -0.31707
   9      -0.00000    -0.00000    -0.00000    -0.00000    -0.31707    -0.94832
  10      -0.98573    -0.03363     0.08621    -0.01707    -0.00000    -0.00000

            7           8           9          10  
       ----------- ----------- ----------- -----------
   1       0.03939    -0.00000     0.00000     0.82332
   2      -0.07622    -0.00000     0.00000    -0.56108
   3       0.74036     0.00000    -0.00000    -0.06603
   4      -0.00000     0.22155    -0.97507    -0.00000
   5       0.00000    -0.97507    -0.22155     0.00000
   6       0.00663     0.00000    -0.00000     0.03700
   7       0.65200     0.00000    -0.00000    -0.03825
   8       0.00000    -0.00988    -0.00734     0.00000
   9       0.00000    -0.00787     0.01007     0.00000
  10      -0.13913    -0.00000     0.00000     0.01161

 global array: orthog[1:10,1:10],  handle: -997 

            1           2           3           4           5           6  
       ----------- ----------- ----------- ----------- ----------- -----------
   1       2.56857    -0.22790    -0.88314     0.00000    -0.00000    -0.37900
   2      -0.09053     2.48147     0.67623    -0.00000     0.00000    -0.12234
   3       0.00000     0.00000     0.00000    -0.49108    -0.83974    -0.00000
   4       0.00000    -0.00000     0.00000     0.83974    -0.49108    -0.00000
   5       1.89454     0.42756     0.40571    -0.00000     0.00000     0.50799
   6      -2.56857     0.22790    -0.88314     0.00000    -0.00000     0.37900
   7       0.09053    -2.48147     0.67623    -0.00000     0.00000     0.12234
   8      -0.00000    -0.00000    -0.00000     0.49108     0.83974     0.00000
   9      -0.00000     0.00000    -0.00000    -0.83974     0.49108    -0.00000
  10       1.89454     0.42756    -0.40571     0.00000    -0.00000     0.50799

            7           8           9          10  
       ----------- ----------- ----------- -----------
   1       0.06335     0.00000    -0.00000    -0.26466
   2      -0.26498    -0.00000    -0.00000    -0.28486
   3      -0.00000     0.57956    -0.06217     0.00000
   4       0.00000     0.06217     0.57956    -0.00000
   5       0.57956     0.00000    -0.00000    -0.10131
   6       0.06335     0.00000     0.00000    -0.26466
   7      -0.26498    -0.00000     0.00000    -0.28486
   8      -0.00000     0.57956    -0.06217     0.00000
   9       0.00000     0.06217     0.57956    -0.00000
  10      -0.57956    -0.00000     0.00000     0.10131

 Task  times  cpu:      152.5s     wall:      152.5s


                                NWChem Input Module
                                -------------------


 Summary of allocated global arrays
-----------------------------------
  No active global arrays


MA_summarize_allocated_blocks: starting scan ...
MA_summarize_allocated_blocks: scan completed: 0 heap blocks, 0 stack blocks
MA usage statistics:

	allocation statistics:
					      heap	     stack
					      ----	     -----
	current number of blocks	         0	         0
	maximum number of blocks	        16	        14
	current total bytes		         0	         0
	maximum total bytes		     80120	  22509176
	maximum total K-bytes		        81	     22510
	maximum total M-bytes		         1	        23


                                     CITATION
                                     --------
                Please cite the following reference when publishing
                           results obtained with NWChem:

          E. Apra, E. J. Bylaska, W. A. de Jong, N. Govind, K. Kowalski,
       T. P. Straatsma, M. Valiev, H. J. J. van Dam, Y. Alexeev, J. Anchell,
       V. Anisimov, F. W. Aquino, R. Atta-Fynn, J. Autschbach, N. P. Bauman,
     J. C. Becca, D. E. Bernholdt, K. Bhaskaran-Nair, S. Bogatko, P. Borowski,
         J. Boschen, J. Brabec, A. Bruner, E. Cauet, Y. Chen, G. N. Chuev,
      C. J. Cramer, J. Daily, M. J. O. Deegan, T. H. Dunning Jr., M. Dupuis,
   K. G. Dyall, G. I. Fann, S. A. Fischer, A. Fonari, H. Fruchtl, L. Gagliardi,
      J. Garza, N. Gawande, S. Ghosh, K. Glaesemann, A. W. Gotz, J. Hammond,
       V. Helms, E. D. Hermes, K. Hirao, S. Hirata, M. Jacquelin, L. Jensen,
   B. G. Johnson, H. Jonsson, R. A. Kendall, M. Klemm, R. Kobayashi, V. Konkov,
      S. Krishnamoorthy, M. Krishnan, Z. Lin, R. D. Lins, R. J. Littlefield,
      A. J. Logsdail, K. Lopata, W. Ma, A. V. Marenich, J. Martin del Campo,
   D. Mejia-Rodriguez, J. E. Moore, J. M. Mullin, T. Nakajima, D. R. Nascimento,
    J. A. Nichols, P. J. Nichols, J. Nieplocha, A. Otero-de-la-Roza, B. Palmer,
    A. Panyala, T. Pirojsirikul, B. Peng, R. Peverati, J. Pittner, L. Pollack,
   R. M. Richard, P. Sadayappan, G. C. Schatz, W. A. Shelton, D. W. Silverstein,
   D. M. A. Smith, T. A. Soares, D. Song, M. Swart, H. L. Taylor, G. S. Thomas,
            V. Tipparaju, D. G. Truhlar, K. Tsemekhman, T. Van Voorhis,
      A. Vazquez-Mayagoitia, P. Verma, O. Villa, A. Vishnu, K. D. Vogiatzis,
        D. Wang, J. H. Weare, M. J. Williamson, T. L. Windus, K. Wolinski,
        A. T. Wong, Q. Wu, C. Yang, Q. Yu, M. Zacharias, Z. Zhang, Y. Zhao,
                                and R. J. Harrison
                        "NWChem: Past, present, and future
                         J. Chem. Phys. 152, 184102 (2020)
                               doi:10.1063/5.0004997

                                      AUTHORS
                                      -------
  E. Apra, E. J. Bylaska, N. Govind, K. Kowalski, M. Valiev, D. Mejia-Rodriguez,
       A. Kunitsa, N. P. Bauman, A. Panyala, W. A. de Jong, T. P. Straatsma,
   H. J. J. van Dam, D. Wang, T. L. Windus, J. Hammond, J. Autschbach, A. Woods,
    K. Bhaskaran-Nair, J. Brabec, K. Lopata, S. A. Fischer, S. Krishnamoorthy,
     M. Jacquelin, W. Ma, M. Klemm, O. Villa, Y. Chen, V. Anisimov, F. Aquino,
     S. Hirata, M. T. Hackler, E. Hermes, L. Jensen, J. E. Moore, J. C. Becca,
      V. Konjkov, T. Risthaus, M. Malagoli, A. Marenich, A. Otero-de-la-Roza,
        J. Mullin, P. Nichols, R. Peverati, J. Pittner, Y. Zhao, P.-D. Fan,
        A. Fonari, M. J. Williamson, R. J. Harrison, J. R. Rehr, M. Dupuis,
     D. Silverstein, D. M. A. Smith, J. Nieplocha, V. Tipparaju, M. Krishnan,
     B. E. Van Kuiken, A. Vazquez-Mayagoitia, M. Swart, Q. Wu, T. Van Voorhis,
     A. A. Auer, M. Nooijen, L. D. Crosby, E. Brown, G. Cisneros, G. I. Fann,
   H. Fruchtl, J. Garza, K. Hirao, R. A. Kendall, J. A. Nichols, K. Tsemekhman,
    K. Wolinski, J. Anchell, D. E. Bernholdt, P. Borowski, T. Clark, D. Clerc,
   H. Dachsel, M. J. O. Deegan, K. Dyall, D. Elwood, E. Glendening, M. Gutowski,
   A. C. Hess, J. Jaffe, B. G. Johnson, J. Ju, R. Kobayashi, R. Kutteh, Z. Lin,
   R. Littlefield, X. Long, B. Meng, T. Nakajima, S. Niu, L. Pollack, M. Rosing,
   K. Glaesemann, G. Sandrone, M. Stave, H. Taylor, G. Thomas, J. H. van Lenthe,
                               A. T. Wong, Z. Zhang.

 Total times  cpu:      152.6s     wall:      152.6s
