 argument  1 = mcscf_h2_ccpvdz_60.nw



============================== echo of input deck ==============================
echo
start mcscf_h2_dat

scratch_dir   .
permanent_dir .

geometry units angstrom noautosym
H        0.0000000000      0.0000000000      3.0
H        0.0000000000      0.0000000000     -3.0
end

basis spherical
  * library "cc-pvdz"
end

mcscf
  active      10
  actelec      2
  multiplicity 1
end

task scf   energy
task mcscf energy
================================================================================


                                         
                                         


             Northwest Computational Chemistry Package (NWChem) 7.2.1
             --------------------------------------------------------


                    Environmental Molecular Sciences Laboratory
                       Pacific Northwest National Laboratory
                                Richland, WA 99352

                              Copyright (c) 1994-2022
                       Pacific Northwest National Laboratory
                            Battelle Memorial Institute

             NWChem is an open-source computational chemistry package
                        distributed under the terms of the
                      Educational Community License (ECL) 2.0
             A copy of the license is included with this distribution
                              in the LICENSE.TXT file

                                  ACKNOWLEDGMENT
                                  --------------

            This software and its documentation were developed at the
            EMSL at Pacific Northwest National Laboratory, a multiprogram
            national laboratory, operated for the U.S. Department of Energy
            by Battelle under Contract Number DE-AC05-76RL01830. Support
            for this work was provided by the Department of Energy Office
            of Biological and Environmental Research, Office of Basic
            Energy Sciences, and the Office of Advanced Scientific Computing.


           Job information
           ---------------

    hostname        = lima-apptainer-al9
    program         = ../../../bin/LINUX64/nwchem
    date            = Tue Apr  1 21:40:25 2025

    compiled        = Mon_Mar_31_23:23:34_2025
    source          = /Users/hubertusvandam/Documents/nwchem-1-noft.nosync
    nwchem branch   = 7.2.1
    nwchem revision = nwchem_on_git-5497-gf3600c6837
    ga revision     = 5.8.0
    use scalapack   = F
    input           = mcscf_h2_ccpvdz_60.nw
    prefix          = mcscf_h2_dat.
    data base       = ./mcscf_h2_dat.db
    status          = startup
    nproc           =        1
    time left       =     -1s



           Memory information
           ------------------

    heap     =     26214398 doubles =      200.0 Mbytes
    stack    =     26214395 doubles =      200.0 Mbytes
    global   =     52428800 doubles =      400.0 Mbytes (distinct from heap & stack)
    total    =    104857593 doubles =      800.0 Mbytes
    verify   = yes
    hardfail = no 


           Directory information
           ---------------------

  0 permanent = .
  0 scratch   = .




                                NWChem Input Module
                                -------------------



 Scaling coordinates for geometry "geometry" by  1.889725989
 (inverse scale =  0.529177249)


          ------
          auto-z
          ------
     1 autoz failed with cvr_scaling = 1.2 changing to 1.3
     2 autoz failed with cvr_scaling = 1.3 changing to 1.4
     3 autoz failed with cvr_scaling = 1.4 changing to 1.5
     4 autoz failed with cvr_scaling = 1.5 changing to 1.6
     5 autoz failed with cvr_scaling = 1.6 changing to 1.7

 AUTOZ failed to generate good internal coordinates.
 Cartesian coordinates will be used in optimizations.



                             Geometry "geometry" -> ""
                             -------------------------

 Output coordinates in angstroms (scale by  1.889725989 to convert to a.u.)

  No.       Tag          Charge          X              Y              Z
 ---- ---------------- ---------- -------------- -------------- --------------
    1 H                    1.0000     0.00000000     0.00000000     3.00000000
    2 H                    1.0000     0.00000000     0.00000000    -3.00000000

      Atomic Mass 
      ----------- 

      H                  1.007825


 Effective nuclear repulsion energy (a.u.)       0.0881962082

            Nuclear Dipole moment (a.u.) 
            ----------------------------
        X                 Y               Z
 ---------------- ---------------- ----------------
     0.0000000000     0.0000000000     0.0000000000


            XYZ format geometry
            -------------------
     2
 geometry
 H                     0.00000000     0.00000000     3.00000000
 H                     0.00000000     0.00000000    -3.00000000



 Summary of "ao basis" -> "" (spherical)
 ------------------------------------------------------------------------------
       Tag                 Description            Shells   Functions and Types
 ---------------- ------------------------------  ------  ---------------------
 *                          cc-pvdz                   on all atoms 


                      Basis "ao basis" -> "ao basis" (spherical)
                      -----
  H (Hydrogen)
  ------------
            Exponent  Coefficients 
       -------------- ---------------------------------------------------------
  1 S  1.30100000E+01  0.019685
  1 S  1.96200000E+00  0.137977
  1 S  4.44600000E-01  0.478148

  2 S  1.22000000E-01  1.000000

  3 P  7.27000000E-01  1.000000



 Summary of "ao basis" -> "ao basis" (spherical)
 ------------------------------------------------------------------------------
       Tag                 Description            Shells   Functions and Types
 ---------------- ------------------------------  ------  ---------------------
 H                          cc-pvdz                  3        5   2s1p


                                 NWChem SCF Module
                                 -----------------



  ao basis        = "ao basis"
  functions       =    10
  atoms           =     2
  closed shells   =     1
  open shells     =     0
  charge          =   0.00
  wavefunction    = RHF 
  input vectors   = atomic
  output vectors  = ./mcscf_h2_dat.movecs
  use symmetry    = F
  symmetry adapt  = F


 Summary of "ao basis" -> "ao basis" (spherical)
 ------------------------------------------------------------------------------
       Tag                 Description            Shells   Functions and Types
 ---------------- ------------------------------  ------  ---------------------
 H                          cc-pvdz                  3        5   2s1p



 Forming initial guess at       0.1s


      Superposition of Atomic Density Guess
      -------------------------------------

 Sum of atomic energies:          -0.99855800
 HVD ga_orthog  T

 global array: scf_init: MOs[1:10,1:10],  handle: -1000 

            1           2           3           4           5           6  
       ----------- ----------- ----------- ----------- ----------- -----------
   1      -0.49993    -0.50007     0.00000     0.00000     0.00000     0.00000
   2       0.50007     0.49993     0.00000    -0.00000     0.00000    -0.00000
   3       0.00000    -0.00000     0.00330    -0.00993    -0.98571     0.05086
   4      -0.00000     0.00000    -0.00305     0.00916     0.14637     0.03903
   5      -0.00000     0.00000    -0.31577     0.94873    -0.01173     0.00016
   6       0.49993    -0.50007    -0.00000     0.00000    -0.00000     0.00000
   7      -0.50007     0.49993    -0.00000    -0.00000    -0.00000     0.00000
   8       0.00000     0.00000     0.00000     0.00000     0.08186     0.42372
   9       0.00000     0.00000     0.00000     0.00000     0.01078     0.90352
  10      -0.00000    -0.00000    -0.94882    -0.31581     0.00000    -0.00000

            7           8           9          10  
       ----------- ----------- ----------- -----------
   1       0.00000    -0.00000     0.50007    -0.49993
   2      -0.00000     0.00000     0.49993    -0.50007
   3      -0.13949    -0.07890    -0.00000    -0.00000
   4      -0.98656    -0.06054    -0.00000    -0.00000
   5       0.00807    -0.00024     0.00000     0.00000
   6       0.00000    -0.00000    -0.50007    -0.49993
   7      -0.00000    -0.00000    -0.49993    -0.50007
   8       0.08402    -0.89816     0.00000    -0.00000
   9       0.01106     0.42827     0.00000    -0.00000
  10      -0.00000     0.00000     0.00000    -0.00000

 global array: Temp HCore[1:10,1:10],  handle: -994 

            1           2           3           4           5           6  
       ----------- ----------- ----------- ----------- ----------- -----------
   1       1.00000     0.68486     0.00000     0.00000     0.00000     0.00000
   2       0.68486     1.00000     0.00000     0.00000     0.00000     0.00000
   3       0.00000     0.00000     1.00000     0.00000     0.00000     0.00000
   4       0.00000     0.00000     0.00000     1.00000     0.00000     0.00000
   5       0.00000     0.00000     0.00000     0.00000     1.00000     0.00000
   6       0.00000     0.00000     0.00000     0.00000     0.00000     1.00000
   7       0.00000     0.00039     0.00000     0.00000    -0.00000     0.68486
   8       0.00000     0.00000     0.00000     0.00000     0.00000     0.00000
   9       0.00000     0.00000     0.00000     0.00000     0.00000     0.00000
  10       0.00000     0.00000     0.00000     0.00000     0.00000    -0.00000

            7           8           9          10  
       ----------- ----------- ----------- -----------
   1       0.00000     0.00000     0.00000     0.00000
   2       0.00039     0.00000     0.00000     0.00000
   3       0.00000     0.00000     0.00000     0.00000
   4       0.00000     0.00000     0.00000     0.00000
   5      -0.00000     0.00000     0.00000     0.00000
   6       0.68486     0.00000     0.00000    -0.00000
   7       1.00000     0.00000     0.00000     0.00000
   8       0.00000     1.00000     0.00000     0.00000
   9       0.00000     0.00000     1.00000     0.00000
  10       0.00000     0.00000     0.00000     1.00000

      Non-variational initial energy
      ------------------------------

 Total energy =      -0.685926
 1-e energy   =      -1.174949
 2-e energy   =       0.400827
 HOMO         =      -0.196673
 LUMO         =      -0.196438


 Starting SCF solution at       0.1s



 ----------------------------------------------
         Quadratically convergent ROHF

 Convergence threshold     :          1.000E-04
 Maximum no. of iterations :           30
 Final Fock-matrix accuracy:          1.000E-07
 ----------------------------------------------


 #quartets = 1.380D+02 #integrals = 2.700D+02 #direct =  0.0% #cached =100.0%


 Integral file          = ./mcscf_h2_dat.aoints.0
 Record size in doubles =    65536    No. of integs per rec  =    43688
 Max. records in memory =        3    Max. records in file   = ********
 No. of bits per label  =        8    No. of bits per value  =       64


              iter       energy          gnorm     gmax       time
             ----- ------------------- --------- --------- --------
                 1       -0.7515857722  2.93D-02  2.75D-02      0.1
                 2       -0.7517154373  2.26D-04  2.08D-04      0.1
                 3       -0.7517154420  1.87D-06  1.73D-06      0.1


       Final RHF  results 
       ------------------ 

         Total SCF energy =     -0.751715442008
      One-electron energy =     -1.156387037638
      Two-electron energy =      0.316475387463
 Nuclear repulsion energy =      0.088196208167

        Time for solution =      0.0s


             Final eigenvalues
             -----------------

              1      
    1   -0.2617
    2   -0.1733
    3    0.6275
    4    0.6291
    5    1.4684
    6    1.4686
    7    1.4686
    8    1.4688
    9    1.4688
   10    1.4690

                       ROHF Final Molecular Orbital Analysis
                       -------------------------------------

 Vector    1  Occ=2.000000D+00  E=-2.617181D-01
              MO Center=  1.9D-15, -2.0D-15, -1.8D-11, r^2= 1.0D+01
   Bfn.  Coefficient  Atom+Function         Bfn.  Coefficient  Atom+Function  
  ----- ------------  ---------------      ----- ------------  ---------------
     2      0.457988  1 H  s                  7      0.457988  2 H  s          
     1      0.309675  1 H  s                  6      0.309675  2 H  s          

 Vector    2  Occ=0.000000D+00  E=-1.732705D-01
              MO Center=  1.0D-16, -1.1D-16,  1.8D-11, r^2= 1.0D+01
   Bfn.  Coefficient  Atom+Function         Bfn.  Coefficient  Atom+Function  
  ----- ------------  ---------------      ----- ------------  ---------------
     2      0.457645  1 H  s                  7     -0.457645  2 H  s          
     1      0.310177  1 H  s                  6     -0.310177  2 H  s          

 Vector    3  Occ=0.000000D+00  E= 6.275107D-01
              MO Center=  5.8D-17,  1.3D-17,  8.0D-09, r^2= 1.1D+01
   Bfn.  Coefficient  Atom+Function         Bfn.  Coefficient  Atom+Function  
  ----- ------------  ---------------      ----- ------------  ---------------
     1      0.919489  1 H  s                  6      0.919489  2 H  s          
     2     -0.855124  1 H  s                  7     -0.855124  2 H  s          

 Vector    4  Occ=0.000000D+00  E= 6.290741D-01
              MO Center=  2.7D-18, -2.9D-18, -8.0D-09, r^2= 1.1D+01
   Bfn.  Coefficient  Atom+Function         Bfn.  Coefficient  Atom+Function  
  ----- ------------  ---------------      ----- ------------  ---------------
     1      0.919668  1 H  s                  6     -0.919668  2 H  s          
     2     -0.856113  1 H  s                  7      0.856113  2 H  s          

 Vector    5  Occ=0.000000D+00  E= 1.468400D+00
              MO Center= -7.7D-15, -3.1D-15,  2.5D-08, r^2= 9.5D+00
   Bfn.  Coefficient  Atom+Function         Bfn.  Coefficient  Atom+Function  
  ----- ------------  ---------------      ----- ------------  ---------------
     5      0.707106  1 H  pz                10     -0.707106  2 H  pz         

 Vector    6  Occ=0.000000D+00  E= 1.468551D+00
              MO Center=  4.9D-15, -8.1D-16,  5.1D-08, r^2= 9.5D+00
   Bfn.  Coefficient  Atom+Function         Bfn.  Coefficient  Atom+Function  
  ----- ------------  ---------------      ----- ------------  ---------------
     3      0.697511  1 H  px                 8      0.697511  2 H  px         

 Vector    7  Occ=0.000000D+00  E= 1.468551D+00
              MO Center=  9.9D-16,  5.9D-15,  5.1D-08, r^2= 9.5D+00
   Bfn.  Coefficient  Atom+Function         Bfn.  Coefficient  Atom+Function  
  ----- ------------  ---------------      ----- ------------  ---------------
     4      0.697511  1 H  py                 9      0.697511  2 H  py         

 Vector    8  Occ=0.000000D+00  E= 1.468848D+00
              MO Center=  1.1D-16,  1.2D-16, -5.1D-08, r^2= 9.5D+00
   Bfn.  Coefficient  Atom+Function         Bfn.  Coefficient  Atom+Function  
  ----- ------------  ---------------      ----- ------------  ---------------
     4      0.516597  1 H  py                 9     -0.516597  2 H  py         
     3      0.482833  1 H  px                 8     -0.482833  2 H  px         

 Vector    9  Occ=0.000000D+00  E= 1.468848D+00
              MO Center=  9.5D-17, -8.9D-17, -5.1D-08, r^2= 9.5D+00
   Bfn.  Coefficient  Atom+Function         Bfn.  Coefficient  Atom+Function  
  ----- ------------  ---------------      ----- ------------  ---------------
     3      0.516597  1 H  px                 8     -0.516597  2 H  px         
     4     -0.482833  1 H  py                 9      0.482833  2 H  py         

 Vector   10  Occ=0.000000D+00  E= 1.469010D+00
              MO Center= -3.1D-16,  8.4D-17, -2.5D-08, r^2= 9.5D+00
   Bfn.  Coefficient  Atom+Function         Bfn.  Coefficient  Atom+Function  
  ----- ------------  ---------------      ----- ------------  ---------------
     5      0.707106  1 H  pz                10      0.707106  2 H  pz         


 center of mass
 --------------
 x =   0.00000000 y =   0.00000000 z =   0.00000000

 moments of inertia (a.u.)
 ------------------
          64.782142022797           0.000000000000           0.000000000000
           0.000000000000          64.782142022797           0.000000000000
           0.000000000000           0.000000000000           0.000000000000

  Mulliken analysis of the total density
  --------------------------------------

    Atom       Charge   Shell Charges
 -----------   ------   -------------------------------------------------------
    1 H    1     1.00   0.39  0.61  0.00
    2 H    1     1.00   0.39  0.61  0.00

       Multipole analysis of the density wrt the origin
       ------------------------------------------------

     L   x y z        total         open         nuclear
     -   - - -        -----         ----         -------
     0   0 0 0     -0.000000      0.000000      2.000000

     1   1 0 0     -0.000000      0.000000      0.000000
     1   0 1 0      0.000000      0.000000      0.000000
     1   0 0 1      0.000000      0.000000      0.000000

     2   2 0 0     -2.514526      0.000000      0.000000
     2   1 1 0      0.000000      0.000000      0.000000
     2   1 0 1      0.000000      0.000000      0.000000
     2   0 2 0     -2.514526      0.000000      0.000000
     2   0 1 1     -0.000000      0.000000      0.000000
     2   0 0 2     -2.454747      0.000000     64.279158


 Parallel integral file used       1 records with       0 large values


 Task  times  cpu:        0.0s     wall:        0.0s


                                NWChem Input Module
                                -------------------



                            NWChem Direct MCSCF Module
                            --------------------------


     -----------------------------------
       Basis functions:             10
       Inactive shells:              0
       Active shells:               10
       Active electrons:             2
       Symmetry:                    a       
       Multiplicity:                 1
       Orbital rotations:            0
     -----------------------------------

     -----------------------------------
       E2 extrapolation:             F
       Conjugacy:                    T
       Micro CI relax:               T
       Canonical orbitals:           T
       Maximum iterations:          20
       Converge threshold:    1.00E-04
       Conjugacy resets:            20
       Initial levelshift:        0.10
     -----------------------------------
 HVD ga_orthog  T

 global array: MO vectors[1:10,1:10],  handle: -1000 

            1           2           3           4           5           6  
       ----------- ----------- ----------- ----------- ----------- -----------
   1       0.30968     0.31018     0.91949     0.91967     0.00050     0.00000
   2       0.45799     0.45765    -0.85512    -0.85611     0.00076     0.00000
   3       0.00000     0.00000     0.00000     0.00000    -0.00000     0.69751
   4      -0.00000    -0.00000     0.00000    -0.00000    -0.00000    -0.11609
   5      -0.00116     0.00104     0.00000    -0.00002     0.70711     0.00000
   6       0.30968    -0.31018     0.91949    -0.91967     0.00050     0.00000
   7       0.45799    -0.45765    -0.85512     0.85611     0.00076     0.00000
   8       0.00000    -0.00000     0.00000    -0.00000    -0.00000     0.69751
   9      -0.00000     0.00000    -0.00000     0.00000    -0.00000    -0.11609
  10       0.00116     0.00104    -0.00000    -0.00002    -0.70711    -0.00000

            7           8           9          10  
       ----------- ----------- ----------- -----------
   1       0.00000    -0.00000     0.00000    -0.00043
   2       0.00000    -0.00000     0.00000    -0.00070
   3       0.11609     0.48283     0.51660     0.00000
   4       0.69751     0.51660    -0.48283    -0.00000
   5       0.00000    -0.00000    -0.00000     0.70711
   6       0.00000    -0.00000     0.00000     0.00043
   7       0.00000    -0.00000     0.00000     0.00070
   8       0.11609    -0.48283    -0.51660    -0.00000
   9       0.69751    -0.51660     0.48283     0.00000
  10      -0.00000    -0.00000    -0.00000     0.70711

 global array: orthog_mos: overlap[1:10,1:10],  handle: -999 

            1           2           3           4           5           6  
       ----------- ----------- ----------- ----------- ----------- -----------
   1       1.00000     0.68486     0.00000     0.00000     0.00000     0.00000
   2       0.68486     1.00000     0.00000     0.00000     0.00000     0.00000
   3       0.00000     0.00000     1.00000     0.00000     0.00000     0.00000
   4       0.00000     0.00000     0.00000     1.00000     0.00000     0.00000
   5       0.00000     0.00000     0.00000     0.00000     1.00000     0.00000
   6       0.00000     0.00000     0.00000     0.00000     0.00000     1.00000
   7       0.00000     0.00039     0.00000     0.00000    -0.00000     0.68486
   8       0.00000     0.00000     0.00000     0.00000     0.00000     0.00000
   9       0.00000     0.00000     0.00000     0.00000     0.00000     0.00000
  10       0.00000     0.00000     0.00000     0.00000     0.00000    -0.00000

            7           8           9          10  
       ----------- ----------- ----------- -----------
   1       0.00000     0.00000     0.00000     0.00000
   2       0.00039     0.00000     0.00000     0.00000
   3       0.00000     0.00000     0.00000     0.00000
   4       0.00000     0.00000     0.00000     0.00000
   5      -0.00000     0.00000     0.00000     0.00000
   6       0.68486     0.00000     0.00000    -0.00000
   7       1.00000     0.00000     0.00000     0.00000
   8       0.00000     1.00000     0.00000     0.00000
   9       0.00000     0.00000     1.00000     0.00000
  10       0.00000     0.00000     0.00000     1.00000

   input molecular orbitals = ./mcscf_h2_dat.movecs
  output molecular orbtials = ./mcscf_h2_dat.movecs

 HVD ga_orthog  T

 global array: MO vectors[1:10,1:10],  handle: -1000 

            1           2           3           4           5           6  
       ----------- ----------- ----------- ----------- ----------- -----------
   1       0.30968     0.31018     0.91949     0.91967     0.00050     0.00000
   2       0.45799     0.45765    -0.85512    -0.85611     0.00076     0.00000
   3       0.00000     0.00000     0.00000     0.00000    -0.00000     0.69751
   4      -0.00000    -0.00000     0.00000    -0.00000    -0.00000    -0.11609
   5      -0.00116     0.00104     0.00000    -0.00002     0.70711     0.00000
   6       0.30968    -0.31018     0.91949    -0.91967     0.00050     0.00000
   7       0.45799    -0.45765    -0.85512     0.85611     0.00076     0.00000
   8       0.00000    -0.00000     0.00000    -0.00000    -0.00000     0.69751
   9      -0.00000     0.00000    -0.00000     0.00000    -0.00000    -0.11609
  10       0.00116     0.00104    -0.00000    -0.00002    -0.70711    -0.00000

            7           8           9          10  
       ----------- ----------- ----------- -----------
   1       0.00000    -0.00000     0.00000    -0.00043
   2       0.00000    -0.00000     0.00000    -0.00070
   3       0.11609     0.48283     0.51660     0.00000
   4       0.69751     0.51660    -0.48283    -0.00000
   5       0.00000    -0.00000    -0.00000     0.70711
   6       0.00000    -0.00000     0.00000     0.00043
   7       0.00000    -0.00000     0.00000     0.00070
   8       0.11609    -0.48283    -0.51660    -0.00000
   9       0.69751    -0.51660     0.48283     0.00000
  10      -0.00000    -0.00000    -0.00000     0.70711

 global array: orthog_mos: overlap[1:10,1:10],  handle: -999 

            1           2           3           4           5           6  
       ----------- ----------- ----------- ----------- ----------- -----------
   1       1.00000     0.68486     0.00000     0.00000     0.00000     0.00000
   2       0.68486     1.00000     0.00000     0.00000     0.00000     0.00000
   3       0.00000     0.00000     1.00000     0.00000     0.00000     0.00000
   4       0.00000     0.00000     0.00000     1.00000     0.00000     0.00000
   5       0.00000     0.00000     0.00000     0.00000     1.00000     0.00000
   6       0.00000     0.00000     0.00000     0.00000     0.00000     1.00000
   7       0.00000     0.00039     0.00000     0.00000    -0.00000     0.68486
   8       0.00000     0.00000     0.00000     0.00000     0.00000     0.00000
   9       0.00000     0.00000     0.00000     0.00000     0.00000     0.00000
  10       0.00000     0.00000     0.00000     0.00000     0.00000    -0.00000

            7           8           9          10  
       ----------- ----------- ----------- -----------
   1       0.00000     0.00000     0.00000     0.00000
   2       0.00039     0.00000     0.00000     0.00000
   3       0.00000     0.00000     0.00000     0.00000
   4       0.00000     0.00000     0.00000     0.00000
   5      -0.00000     0.00000     0.00000     0.00000
   6       0.68486     0.00000     0.00000    -0.00000
   7       1.00000     0.00000     0.00000     0.00000
   8       0.00000     1.00000     0.00000     0.00000
   9       0.00000     0.00000     1.00000     0.00000
  10       0.00000     0.00000     0.00000     1.00000
       No. of determinants:           100


  Starting Orbital Energies
    -0.261718    -0.173270     0.627511     0.629074     1.468400     1.468551
     1.468551     1.468848     1.468848     1.469010

  Orbital Symmetry Irreps
a    a    a    a    a    a    a    a    a    a   

 #quartets = 1.390D+02 #integrals = 2.870D+02 #direct =  0.0% #cached =100.0%


 Integral file          = ./mcscf_h2_dat.aoints.0
 Record size in doubles =    65536    No. of integs per rec  =    43688
 Max. records in memory =        3    Max. records in file   = ********
 No. of bits per label  =        8    No. of bits per value  =       64




          %%%%% MacroIteration   1 %%%%%


          Number of sigma calls:        7
                       o<<<<< (aa):             0.00
                       o<<<<< (bb):             0.00
                       o<<<<< (ab):             0.00
                       o<<<<< (total)           0.00
                       o<<<<< (aa) ff           0.00
                       o<<<<< (aa) gop          0.00
                       o<<<<< (aa) dot          0.00
                       o<<<<< (ab) str          0.00
                       o<<<<< (ab) gath         0.00
                       o<<<<< (ab) dotab        0.00
                       o<<<<< (ab) scat         0.00
                       o<<<<< (ab) sync         0.00
                       o<<<<< Density           0.00
                       o<<<<< Density one       0.00
                       o<<<<< Density two       0.00
                       o<<<<< Density ab        0.00
                       o<<<<< Spin adapt        0.00
                       o<<<<< Symm adapt        0.00

                       o<<<<< (ab) max sync:      0.00

           >>>| Valence CI:             -1.086753275798
           >>>| MCSCF energy:           -0.998557067631
           >>>| Gradient norm:          0.000000000D+00




     ==============================
            MCSCF Converged
     ==============================



          Canonical Eigenvalues

              1      
    1   -0.2617
    2   -0.1733
    3    0.6275
    4    0.6291
    5    1.4684
    6    1.4686
    7    1.4686
    8    1.4688
    9    1.4688
   10    1.4690


          Converged CI vector

   Index           Coefficient          Config. Occupation
         1         -0.69763574          1  1
         3         -0.08239346          1  3
        12          0.69716563          2  2
        14          0.08213972          2  4
        21         -0.08239346          3  1
        32          0.08213972          4  2

          Number of sigma calls:        1
                       o<<<<< (aa):             0.00
                       o<<<<< (bb):             0.00
                       o<<<<< (ab):             0.00
                       o<<<<< (total)           0.00
                       o<<<<< (aa) ff           0.00
                       o<<<<< (aa) gop          0.00
                       o<<<<< (aa) dot          0.00
                       o<<<<< (ab) str          0.00
                       o<<<<< (ab) gath         0.00
                       o<<<<< (ab) dotab        0.00
                       o<<<<< (ab) scat         0.00
                       o<<<<< (ab) sync         0.00
                       o<<<<< Density           0.00
                       o<<<<< Density one       0.00
                       o<<<<< Density two       0.00
                       o<<<<< Density ab        0.00
                       o<<<<< Spin adapt        0.00
                       o<<<<< Symm adapt        0.00

                       o<<<<< (ab) max sync:      0.00
 HVD ga_orthog  T

 global array: MO vectors[1:10,1:10],  handle: -1000 

            1           2           3           4           5           6  
       ----------- ----------- ----------- ----------- ----------- -----------
   1      -0.41538    -0.41566     0.00500    -0.00457    -0.00000    -0.00000
   2      -0.35453    -0.35433    -0.00514     0.00471     0.00000     0.00000
   3       0.00000     0.00000    -0.00000    -0.00000     0.69885    -0.10774
   4       0.00000     0.00000    -0.00000    -0.00000    -0.10774    -0.69885
   5       0.00000    -0.00000     0.70710     0.70710     0.00000    -0.00000
   6      -0.41538     0.41566     0.00500     0.00457    -0.00000    -0.00000
   7      -0.35453     0.35433    -0.00514    -0.00471     0.00000     0.00000
   8       0.00000    -0.00000    -0.00000     0.00000     0.69885    -0.10774
   9       0.00000    -0.00000    -0.00000     0.00000    -0.10774    -0.69885
  10      -0.00000    -0.00000    -0.70710     0.70710    -0.00000     0.00000

            7           8           9          10  
       ----------- ----------- ----------- -----------
   1       0.00000     0.00000     0.87689    -0.87696
   2      -0.00000    -0.00000    -0.90301     0.90368
   3       0.56281    -0.42807     0.00000     0.00000
   4       0.42807     0.56281    -0.00000     0.00000
   5       0.00000    -0.00000    -0.00403    -0.00369
   6      -0.00000    -0.00000     0.87672     0.87713
   7       0.00000     0.00000    -0.90283    -0.90386
   8      -0.56281     0.42807    -0.00000    -0.00000
   9      -0.42807    -0.56281    -0.00000    -0.00000
  10       0.00000    -0.00000     0.00403    -0.00368

 global array: orthog_mos: overlap[1:10,1:10],  handle: -994 

            1           2           3           4           5           6  
       ----------- ----------- ----------- ----------- ----------- -----------
   1       1.00000     0.68486     0.00000     0.00000     0.00000     0.00000
   2       0.68486     1.00000     0.00000     0.00000     0.00000     0.00000
   3       0.00000     0.00000     1.00000     0.00000     0.00000     0.00000
   4       0.00000     0.00000     0.00000     1.00000     0.00000     0.00000
   5       0.00000     0.00000     0.00000     0.00000     1.00000     0.00000
   6       0.00000     0.00000     0.00000     0.00000     0.00000     1.00000
   7       0.00000     0.00039     0.00000     0.00000    -0.00000     0.68486
   8       0.00000     0.00000     0.00000     0.00000     0.00000     0.00000
   9       0.00000     0.00000     0.00000     0.00000     0.00000     0.00000
  10       0.00000     0.00000     0.00000     0.00000     0.00000    -0.00000

            7           8           9          10  
       ----------- ----------- ----------- -----------
   1       0.00000     0.00000     0.00000     0.00000
   2       0.00039     0.00000     0.00000     0.00000
   3       0.00000     0.00000     0.00000     0.00000
   4       0.00000     0.00000     0.00000     0.00000
   5      -0.00000     0.00000     0.00000     0.00000
   6       0.68486     0.00000     0.00000    -0.00000
   7       1.00000     0.00000     0.00000     0.00000
   8       0.00000     1.00000     0.00000     0.00000
   9       0.00000     0.00000     1.00000     0.00000
  10       0.00000     0.00000     0.00000     1.00000



          Natural orbital occupation numbers

              1      
    1    1.0007
    2    0.9993
    3    0.0000
    4    0.0000
    5    0.0000
    6    0.0000
    7    0.0000
    8    0.0000
    9    0.0000
   10    0.0000


          Number of sigma calls:       12
                       o<<<<< (aa):             0.00
                       o<<<<< (bb):             0.00
                       o<<<<< (ab):             0.00
                       o<<<<< (total)           0.00
                       o<<<<< (aa) ff           0.00
                       o<<<<< (aa) gop          0.00
                       o<<<<< (aa) dot          0.00
                       o<<<<< (ab) str          0.00
                       o<<<<< (ab) gath         0.00
                       o<<<<< (ab) dotab        0.00
                       o<<<<< (ab) scat         0.00
                       o<<<<< (ab) sync         0.00
                       o<<<<< Density           0.00
                       o<<<<< Density one       0.00
                       o<<<<< Density two       0.00
                       o<<<<< Density ab        0.00
                       o<<<<< Spin adapt        0.00
                       o<<<<< Symm adapt        0.00

                       o<<<<< (ab) max sync:      0.00


       Final MCSCF results 
       ------------------- 

       Total MCSCF energy =     -0.998557067631
            Gradient norm =      0.0D+00

    CPU time for solution =      0.1s
   Wall time for solution =      0.1s



                        Analysis of MCSCF natural orbitals
                        ----------------------------------

 Vector    1  Occ=1.000741D+00  E=-2.617181D-01  Symmetry=a
              MO Center= -9.7D-17, -6.9D-17,  2.8D-12, r^2= 9.8D+00
   Bfn.  Coefficient  Atom+Function         Bfn.  Coefficient  Atom+Function  
  ----- ------------  ---------------      ----- ------------  ---------------
     1      0.415384  1 H  s                  6      0.415384  2 H  s          
     2      0.354531  1 H  s                  7      0.354531  2 H  s          

 Vector    2  Occ=9.992591D-01  E=-1.732705D-01  Symmetry=a
              MO Center= -9.7D-17, -7.2D-17, -2.8D-12, r^2= 9.8D+00
   Bfn.  Coefficient  Atom+Function         Bfn.  Coefficient  Atom+Function  
  ----- ------------  ---------------      ----- ------------  ---------------
     1      0.415656  1 H  s                  6     -0.415656  2 H  s          
     2      0.354329  1 H  s                  7     -0.354329  2 H  s          

 Vector    3  Occ=4.911564D-08  E= 6.275107D-01  Symmetry=a
              MO Center= -1.4D-17, -5.6D-18, -7.2D-10, r^2= 9.5D+00
   Bfn.  Coefficient  Atom+Function         Bfn.  Coefficient  Atom+Function  
  ----- ------------  ---------------      ----- ------------  ---------------
     5      0.707095  1 H  pz                10     -0.707095  2 H  pz         

 Vector    4  Occ=4.386754D-08  E= 6.290741D-01  Symmetry=a
              MO Center=  7.1D-18,  3.3D-18,  7.5D-10, r^2= 9.5D+00
   Bfn.  Coefficient  Atom+Function         Bfn.  Coefficient  Atom+Function  
  ----- ------------  ---------------      ----- ------------  ---------------
     5      0.707097  1 H  pz                10      0.707097  2 H  pz         

 Vector    5  Occ=1.294998D-08  E= 1.468400D+00  Symmetry=a
              MO Center= -8.7D-16,  1.3D-16, -1.2D-09, r^2= 9.5D+00
   Bfn.  Coefficient  Atom+Function         Bfn.  Coefficient  Atom+Function  
  ----- ------------  ---------------      ----- ------------  ---------------
     3      0.698851  1 H  px                 8      0.698851  2 H  px         

 Vector    6  Occ=1.294998D-08  E= 1.468551D+00  Symmetry=a
              MO Center=  8.4D-16,  5.5D-15, -1.2D-09, r^2= 9.5D+00
   Bfn.  Coefficient  Atom+Function         Bfn.  Coefficient  Atom+Function  
  ----- ------------  ---------------      ----- ------------  ---------------
     4      0.698851  1 H  py                 9      0.698851  2 H  py         

 Vector    7  Occ=1.034841D-08  E= 1.468551D+00  Symmetry=a
              MO Center=  6.5D-15,  4.9D-15,  1.2D-09, r^2= 9.5D+00
   Bfn.  Coefficient  Atom+Function         Bfn.  Coefficient  Atom+Function  
  ----- ------------  ---------------      ----- ------------  ---------------
     3      0.562810  1 H  px                 8     -0.562810  2 H  px         
     4      0.428071  1 H  py                 9     -0.428071  2 H  py         

 Vector    8  Occ=1.034841D-08  E= 1.468848D+00  Symmetry=a
              MO Center= -1.3D-15,  1.8D-15,  1.2D-09, r^2= 9.5D+00
   Bfn.  Coefficient  Atom+Function         Bfn.  Coefficient  Atom+Function  
  ----- ------------  ---------------      ----- ------------  ---------------
     4      0.562810  1 H  py                 9     -0.562810  2 H  py         
     3     -0.428071  1 H  px                 8      0.428071  2 H  px         

 Vector    9  Occ=5.274367D-12  E= 1.468848D+00  Symmetry=a
              MO Center=  1.4D-16, -5.5D-15,  5.9D-04, r^2= 1.1D+01
   Bfn.  Coefficient  Atom+Function         Bfn.  Coefficient  Atom+Function  
  ----- ------------  ---------------      ----- ------------  ---------------
     2     -0.903012  1 H  s                  7     -0.902835  2 H  s          
     1      0.876893  1 H  s                  6      0.876721  2 H  s          

 Vector   10  Occ=5.123956D-12  E= 1.469010D+00  Symmetry=a
              MO Center= -5.1D-15, -6.6D-15, -5.9D-04, r^2= 1.1D+01
   Bfn.  Coefficient  Atom+Function         Bfn.  Coefficient  Atom+Function  
  ----- ------------  ---------------      ----- ------------  ---------------
     2     -0.903680  1 H  s                  7      0.903858  2 H  s          
     1      0.876959  1 H  s                  6     -0.877131  2 H  s          


 Wrote Lagrangian and 1- and 2-particle density matrices to ./mcscf_h2_dat.mcpdm


     Multipole analysis of the density
     ---------------------------------

     L   x y z        total        nuclear
     -   - - -        -----        -------
     0   0 0 0     -0.000000      2.000000

     1   1 0 0     -0.000000      0.000000
     1   0 1 0     -0.000000      0.000000
     1   0 0 1      0.000000      0.000000

     2   2 0 0     -1.981705      0.000000
     2   1 1 0     -0.000000      0.000000
     2   1 0 1      0.000000      0.000000
     2   0 2 0     -1.981705      0.000000
     2   0 1 1     -0.000000      0.000000
     2   0 0 2     -1.981694     64.279158


  Mulliken analysis of the total density
  --------------------------------------

    Atom       Charge   Shell Charges
 -----------   ------   -------------------------------------------------------
    1 H    1     1.00   0.55  0.45  0.00
    2 H    1     1.00   0.55  0.45  0.00

    Mulliken analysis of the active space density
    ---------------------------------------------

    Atom       Charge   Shell Charges
 -----------   ------   -------------------------------------------------------
    1 H    1     1.00   0.55  0.45  0.00
    2 H    1     1.00   0.55  0.45  0.00

 Parallel integral file used       1 records with       0 large values


 Task  times  cpu:        0.1s     wall:        0.1s


                                NWChem Input Module
                                -------------------


 Summary of allocated global arrays
-----------------------------------
  No active global arrays


MA_summarize_allocated_blocks: starting scan ...
MA_summarize_allocated_blocks: scan completed: 0 heap blocks, 0 stack blocks
MA usage statistics:

	allocation statistics:
					      heap	     stack
					      ----	     -----
	current number of blocks	         0	         0
	maximum number of blocks	        18	        21
	current total bytes		         0	         0
	maximum total bytes		   1643704	  22509176
	maximum total K-bytes		      1644	     22510
	maximum total M-bytes		         2	        23


                                     CITATION
                                     --------
                Please cite the following reference when publishing
                           results obtained with NWChem:

          E. Apra, E. J. Bylaska, W. A. de Jong, N. Govind, K. Kowalski,
       T. P. Straatsma, M. Valiev, H. J. J. van Dam, Y. Alexeev, J. Anchell,
       V. Anisimov, F. W. Aquino, R. Atta-Fynn, J. Autschbach, N. P. Bauman,
     J. C. Becca, D. E. Bernholdt, K. Bhaskaran-Nair, S. Bogatko, P. Borowski,
         J. Boschen, J. Brabec, A. Bruner, E. Cauet, Y. Chen, G. N. Chuev,
      C. J. Cramer, J. Daily, M. J. O. Deegan, T. H. Dunning Jr., M. Dupuis,
   K. G. Dyall, G. I. Fann, S. A. Fischer, A. Fonari, H. Fruchtl, L. Gagliardi,
      J. Garza, N. Gawande, S. Ghosh, K. Glaesemann, A. W. Gotz, J. Hammond,
       V. Helms, E. D. Hermes, K. Hirao, S. Hirata, M. Jacquelin, L. Jensen,
   B. G. Johnson, H. Jonsson, R. A. Kendall, M. Klemm, R. Kobayashi, V. Konkov,
      S. Krishnamoorthy, M. Krishnan, Z. Lin, R. D. Lins, R. J. Littlefield,
      A. J. Logsdail, K. Lopata, W. Ma, A. V. Marenich, J. Martin del Campo,
   D. Mejia-Rodriguez, J. E. Moore, J. M. Mullin, T. Nakajima, D. R. Nascimento,
    J. A. Nichols, P. J. Nichols, J. Nieplocha, A. Otero-de-la-Roza, B. Palmer,
    A. Panyala, T. Pirojsirikul, B. Peng, R. Peverati, J. Pittner, L. Pollack,
   R. M. Richard, P. Sadayappan, G. C. Schatz, W. A. Shelton, D. W. Silverstein,
   D. M. A. Smith, T. A. Soares, D. Song, M. Swart, H. L. Taylor, G. S. Thomas,
            V. Tipparaju, D. G. Truhlar, K. Tsemekhman, T. Van Voorhis,
      A. Vazquez-Mayagoitia, P. Verma, O. Villa, A. Vishnu, K. D. Vogiatzis,
        D. Wang, J. H. Weare, M. J. Williamson, T. L. Windus, K. Wolinski,
        A. T. Wong, Q. Wu, C. Yang, Q. Yu, M. Zacharias, Z. Zhang, Y. Zhao,
                                and R. J. Harrison
                        "NWChem: Past, present, and future
                         J. Chem. Phys. 152, 184102 (2020)
                               doi:10.1063/5.0004997

                                      AUTHORS
                                      -------
  E. Apra, E. J. Bylaska, N. Govind, K. Kowalski, M. Valiev, D. Mejia-Rodriguez,
       A. Kunitsa, N. P. Bauman, A. Panyala, W. A. de Jong, T. P. Straatsma,
   H. J. J. van Dam, D. Wang, T. L. Windus, J. Hammond, J. Autschbach, A. Woods,
    K. Bhaskaran-Nair, J. Brabec, K. Lopata, S. A. Fischer, S. Krishnamoorthy,
     M. Jacquelin, W. Ma, M. Klemm, O. Villa, Y. Chen, V. Anisimov, F. Aquino,
     S. Hirata, M. T. Hackler, E. Hermes, L. Jensen, J. E. Moore, J. C. Becca,
      V. Konjkov, T. Risthaus, M. Malagoli, A. Marenich, A. Otero-de-la-Roza,
        J. Mullin, P. Nichols, R. Peverati, J. Pittner, Y. Zhao, P.-D. Fan,
        A. Fonari, M. J. Williamson, R. J. Harrison, J. R. Rehr, M. Dupuis,
     D. Silverstein, D. M. A. Smith, J. Nieplocha, V. Tipparaju, M. Krishnan,
     B. E. Van Kuiken, A. Vazquez-Mayagoitia, M. Swart, Q. Wu, T. Van Voorhis,
     A. A. Auer, M. Nooijen, L. D. Crosby, E. Brown, G. Cisneros, G. I. Fann,
   H. Fruchtl, J. Garza, K. Hirao, R. A. Kendall, J. A. Nichols, K. Tsemekhman,
    K. Wolinski, J. Anchell, D. E. Bernholdt, P. Borowski, T. Clark, D. Clerc,
   H. Dachsel, M. J. O. Deegan, K. Dyall, D. Elwood, E. Glendening, M. Gutowski,
   A. C. Hess, J. Jaffe, B. G. Johnson, J. Ju, R. Kobayashi, R. Kutteh, Z. Lin,
   R. Littlefield, X. Long, B. Meng, T. Nakajima, S. Niu, L. Pollack, M. Rosing,
   K. Glaesemann, G. Sandrone, M. Stave, H. Taylor, G. Thomas, J. H. van Lenthe,
                               A. T. Wong, Z. Zhang.

 Total times  cpu:        0.2s     wall:        0.2s
