 argument  1 = mcscf_h2_ccpvdz_eq.nw



============================== echo of input deck ==============================
echo
start mcscf_h2_dat

scratch_dir   .
permanent_dir .

geometry units angstrom noautosym
H        0.0000000000      0.0000000000      0.38044762000
H        0.0000000000      0.0000000000     -0.38044762000
end

basis spherical
  * library "cc-pvdz"
end

mcscf
  active      10
  actelec      2
  multiplicity 1
end

task scf   energy
task mcscf energy
================================================================================


                                         
                                         


             Northwest Computational Chemistry Package (NWChem) 7.2.1
             --------------------------------------------------------


                    Environmental Molecular Sciences Laboratory
                       Pacific Northwest National Laboratory
                                Richland, WA 99352

                              Copyright (c) 1994-2022
                       Pacific Northwest National Laboratory
                            Battelle Memorial Institute

             NWChem is an open-source computational chemistry package
                        distributed under the terms of the
                      Educational Community License (ECL) 2.0
             A copy of the license is included with this distribution
                              in the LICENSE.TXT file

                                  ACKNOWLEDGMENT
                                  --------------

            This software and its documentation were developed at the
            EMSL at Pacific Northwest National Laboratory, a multiprogram
            national laboratory, operated for the U.S. Department of Energy
            by Battelle under Contract Number DE-AC05-76RL01830. Support
            for this work was provided by the Department of Energy Office
            of Biological and Environmental Research, Office of Basic
            Energy Sciences, and the Office of Advanced Scientific Computing.


           Job information
           ---------------

    hostname        = lima-apptainer-al9
    program         = ../../../bin/LINUX64/nwchem
    date            = Tue Apr  1 21:36:01 2025

    compiled        = Mon_Mar_31_23:23:34_2025
    source          = /Users/hubertusvandam/Documents/nwchem-1-noft.nosync
    nwchem branch   = 7.2.1
    nwchem revision = nwchem_on_git-5497-gf3600c6837
    ga revision     = 5.8.0
    use scalapack   = F
    input           = mcscf_h2_ccpvdz_eq.nw
    prefix          = mcscf_h2_dat.
    data base       = ./mcscf_h2_dat.db
    status          = startup
    nproc           =        1
    time left       =     -1s



           Memory information
           ------------------

    heap     =     26214398 doubles =      200.0 Mbytes
    stack    =     26214395 doubles =      200.0 Mbytes
    global   =     52428800 doubles =      400.0 Mbytes (distinct from heap & stack)
    total    =    104857593 doubles =      800.0 Mbytes
    verify   = yes
    hardfail = no 


           Directory information
           ---------------------

  0 permanent = .
  0 scratch   = .




                                NWChem Input Module
                                -------------------



 Scaling coordinates for geometry "geometry" by  1.889725989
 (inverse scale =  0.529177249)


          ------
          auto-z
          ------
  no constraints, skipping    0.0000000000000000     
  no constraints, skipping    0.0000000000000000     


                             Geometry "geometry" -> ""
                             -------------------------

 Output coordinates in angstroms (scale by  1.889725989 to convert to a.u.)

  No.       Tag          Charge          X              Y              Z
 ---- ---------------- ---------- -------------- -------------- --------------
    1 H                    1.0000     0.00000000     0.00000000     0.38044762
    2 H                    1.0000     0.00000000     0.00000000    -0.38044762

      Atomic Mass 
      ----------- 

      H                  1.007825


 Effective nuclear repulsion energy (a.u.)       0.6954666309

            Nuclear Dipole moment (a.u.) 
            ----------------------------
        X                 Y               Z
 ---------------- ---------------- ----------------
     0.0000000000     0.0000000000     0.0000000000



                                Z-matrix (autoz)
                                -------- 

 Units are Angstrom for bonds and degrees for angles

      Type          Name      I     J     K     L     M      Value
      ----------- --------  ----- ----- ----- ----- ----- ----------
    1 Stretch                  1     2                       0.76090


            XYZ format geometry
            -------------------
     2
 geometry
 H                     0.00000000     0.00000000     0.38044762
 H                     0.00000000     0.00000000    -0.38044762



 Summary of "ao basis" -> "" (spherical)
 ------------------------------------------------------------------------------
       Tag                 Description            Shells   Functions and Types
 ---------------- ------------------------------  ------  ---------------------
 *                          cc-pvdz                   on all atoms 


                      Basis "ao basis" -> "ao basis" (spherical)
                      -----
  H (Hydrogen)
  ------------
            Exponent  Coefficients 
       -------------- ---------------------------------------------------------
  1 S  1.30100000E+01  0.019685
  1 S  1.96200000E+00  0.137977
  1 S  4.44600000E-01  0.478148

  2 S  1.22000000E-01  1.000000

  3 P  7.27000000E-01  1.000000



 Summary of "ao basis" -> "ao basis" (spherical)
 ------------------------------------------------------------------------------
       Tag                 Description            Shells   Functions and Types
 ---------------- ------------------------------  ------  ---------------------
 H                          cc-pvdz                  3        5   2s1p


                                 NWChem SCF Module
                                 -----------------



  ao basis        = "ao basis"
  functions       =    10
  atoms           =     2
  closed shells   =     1
  open shells     =     0
  charge          =   0.00
  wavefunction    = RHF 
  input vectors   = atomic
  output vectors  = ./mcscf_h2_dat.movecs
  use symmetry    = F
  symmetry adapt  = F


 Summary of "ao basis" -> "ao basis" (spherical)
 ------------------------------------------------------------------------------
       Tag                 Description            Shells   Functions and Types
 ---------------- ------------------------------  ------  ---------------------
 H                          cc-pvdz                  3        5   2s1p



 Forming initial guess at       0.2s


      Superposition of Atomic Density Guess
      -------------------------------------

 Sum of atomic energies:          -0.99855800
 HVD ga_orthog  T

 global array: scf_init: MOs[1:10,1:10],  handle: -1000 

            1           2           3           4           5           6  
       ----------- ----------- ----------- ----------- ----------- -----------
   1       0.56883     0.06374    -0.52743     0.00000     0.00000    -0.41518
   2      -0.02005    -0.69400     0.40386    -0.00000    -0.00000    -0.13401
   3      -0.00000    -0.00000     0.00000     0.68293     0.18333    -0.00000
   4       0.00000    -0.00000     0.00000    -0.18333     0.68293    -0.00000
   5      -0.41956     0.11958    -0.24230     0.00000     0.00000    -0.55648
   6      -0.56883    -0.06374    -0.52743    -0.00000     0.00000     0.41518
   7       0.02005     0.69400     0.40386     0.00000    -0.00000     0.13401
   8       0.00000     0.00000    -0.00000    -0.68293    -0.18333    -0.00000
   9      -0.00000     0.00000    -0.00000     0.18333    -0.68293    -0.00000
  10      -0.41956     0.11958     0.24230    -0.00000    -0.00000    -0.55648

            7           8           9          10  
       ----------- ----------- ----------- -----------
   1       0.06995     0.00000     0.00000    -0.46575
   2      -0.29258     0.00000     0.00000    -0.50129
   3      -0.00000    -0.66686    -0.23516    -0.00000
   4       0.00000     0.23516    -0.66686    -0.00000
   5      -0.63992     0.00000     0.00000     0.17829
   6       0.06995    -0.00000    -0.00000    -0.46575
   7      -0.29258    -0.00000    -0.00000    -0.50129
   8      -0.00000    -0.66686    -0.23516    -0.00000
   9       0.00000     0.23516    -0.66686    -0.00000
  10       0.63992     0.00000     0.00000    -0.17829

 global array: Temp HCore[1:10,1:10],  handle: -994 

            1           2           3           4           5           6  
       ----------- ----------- ----------- ----------- ----------- -----------
   1       1.00000     0.68486     0.00000     0.00000    -0.00000     0.55393
   2       0.68486     1.00000     0.00000     0.00000    -0.00000     0.55936
   3       0.00000     0.00000     1.00000     0.00000     0.00000     0.00000
   4       0.00000     0.00000     0.00000     1.00000     0.00000     0.00000
   5      -0.00000    -0.00000     0.00000     0.00000     1.00000    -0.53228
   6       0.55393     0.55936     0.00000     0.00000    -0.53228     1.00000
   7       0.55936     0.88151     0.00000     0.00000    -0.16683     0.68486
   8       0.00000     0.00000     0.47164     0.00000     0.00000     0.00000
   9       0.00000     0.00000     0.00000     0.47164     0.00000     0.00000
  10       0.53228     0.16683     0.00000     0.00000    -0.23727     0.00000

            7           8           9          10  
       ----------- ----------- ----------- -----------
   1       0.55936     0.00000     0.00000     0.53228
   2       0.88151     0.00000     0.00000     0.16683
   3       0.00000     0.47164     0.00000     0.00000
   4       0.00000     0.00000     0.47164     0.00000
   5      -0.16683     0.00000     0.00000    -0.23727
   6       0.68486     0.00000     0.00000     0.00000
   7       1.00000     0.00000     0.00000     0.00000
   8       0.00000     1.00000     0.00000     0.00000
   9       0.00000     0.00000     1.00000     0.00000
  10       0.00000     0.00000     0.00000     1.00000

      Non-variational initial energy
      ------------------------------

 Total energy =      -0.848623
 1-e energy   =      -2.198856
 2-e energy   =       0.654767
 HOMO         =      -0.573388
 LUMO         =       0.137947


 Starting SCF solution at       0.2s



 ----------------------------------------------
         Quadratically convergent ROHF

 Convergence threshold     :          1.000E-04
 Maximum no. of iterations :           30
 Final Fock-matrix accuracy:          1.000E-07
 ----------------------------------------------


 #quartets = 2.310D+02 #integrals = 5.870D+02 #direct =  0.0% #cached =100.0%


 Integral file          = ./mcscf_h2_dat.aoints.0
 Record size in doubles =    65536    No. of integs per rec  =    43688
 Max. records in memory =        3    Max. records in file   = ********
 No. of bits per label  =        8    No. of bits per value  =       64


              iter       energy          gnorm     gmax       time
             ----- ------------------- --------- --------- --------
                 1       -1.1272508863  1.02D-01  9.70D-02      0.2
                 2       -1.1286275766  4.91D-03  4.41D-03      0.2
                 3       -1.1286294414  5.02D-07  4.46D-07      0.2


       Final RHF  results 
       ------------------ 

         Total SCF energy =     -1.128629441420
      One-electron energy =     -2.475840214135
      Two-electron energy =      0.651744141856
 Nuclear repulsion energy =      0.695466630859

        Time for solution =      0.0s


             Final eigenvalues
             -----------------

              1      
    1   -0.5862
    2    0.1934
    3    0.4843
    4    0.9226
    5    1.2907
    6    1.2907
    7    1.9366
    8    2.0293
    9    2.0293
   10    3.4887

                       ROHF Final Molecular Orbital Analysis
                       -------------------------------------

 Vector    1  Occ=2.000000D+00  E=-5.861760D-01
              MO Center=  1.3D-17, -5.7D-17, -2.0D-16, r^2= 7.3D-01
   Bfn.  Coefficient  Atom+Function         Bfn.  Coefficient  Atom+Function  
  ----- ------------  ---------------      ----- ------------  ---------------
     1      0.401244  1 H  s                  6      0.401244  2 H  s          
     2      0.178633  1 H  s                  7      0.178633  2 H  s          

 Vector    2  Occ=0.000000D+00  E= 1.933997D-01
              MO Center= -1.2D-19,  2.3D-18,  5.2D-15, r^2= 2.7D+00
   Bfn.  Coefficient  Atom+Function         Bfn.  Coefficient  Atom+Function  
  ----- ------------  ---------------      ----- ------------  ---------------
     2      1.897303  1 H  s                  7     -1.897303  2 H  s          
     1      0.154109  1 H  s                  6     -0.154109  2 H  s          

 Vector    3  Occ=0.000000D+00  E= 4.843340D-01
              MO Center= -4.1D-17, -1.9D-17, -2.3D-15, r^2= 2.3D+00
   Bfn.  Coefficient  Atom+Function         Bfn.  Coefficient  Atom+Function  
  ----- ------------  ---------------      ----- ------------  ---------------
     2     -0.727074  1 H  s                  7     -0.727074  2 H  s          
     1      0.706595  1 H  s                  6      0.706595  2 H  s          

 Vector    4  Occ=0.000000D+00  E= 9.226285D-01
              MO Center= -1.5D-18,  4.9D-18, -1.8D-15, r^2= 1.6D+00
   Bfn.  Coefficient  Atom+Function         Bfn.  Coefficient  Atom+Function  
  ----- ------------  ---------------      ----- ------------  ---------------
     2      1.604169  1 H  s                  7     -1.604169  2 H  s          
     1     -0.786588  1 H  s                  6      0.786588  2 H  s          
     5     -0.392184  1 H  pz                10     -0.392184  2 H  pz         

 Vector    5  Occ=0.000000D+00  E= 1.290703D+00
              MO Center=  2.5D-17,  4.6D-17,  1.3D-15, r^2= 5.8D-01
   Bfn.  Coefficient  Atom+Function         Bfn.  Coefficient  Atom+Function  
  ----- ------------  ---------------      ----- ------------  ---------------
     4      0.512746  1 H  py                 9      0.512746  2 H  py         
     3      0.277215  1 H  px                 8      0.277215  2 H  px         

 Vector    6  Occ=0.000000D+00  E= 1.290703D+00
              MO Center= -5.3D-17,  2.9D-17,  5.9D-16, r^2= 5.8D-01
   Bfn.  Coefficient  Atom+Function         Bfn.  Coefficient  Atom+Function  
  ----- ------------  ---------------      ----- ------------  ---------------
     3      0.512746  1 H  px                 8      0.512746  2 H  px         
     4     -0.277215  1 H  py                 9     -0.277215  2 H  py         

 Vector    7  Occ=0.000000D+00  E= 1.936584D+00
              MO Center=  1.1D-16, -3.9D-17,  1.2D-15, r^2= 8.1D-01
   Bfn.  Coefficient  Atom+Function         Bfn.  Coefficient  Atom+Function  
  ----- ------------  ---------------      ----- ------------  ---------------
     5      0.714164  1 H  pz                10     -0.714164  2 H  pz         
     1      0.440130  1 H  s                  6      0.440130  2 H  s          
     2     -0.219308  1 H  s                  7     -0.219308  2 H  s          

 Vector    8  Occ=0.000000D+00  E= 2.029323D+00
              MO Center= -2.6D-18, -9.3D-20, -8.0D-16, r^2= 7.6D-01
   Bfn.  Coefficient  Atom+Function         Bfn.  Coefficient  Atom+Function  
  ----- ------------  ---------------      ----- ------------  ---------------
     3      0.972161  1 H  px                 8     -0.972161  2 H  px         

 Vector    9  Occ=0.000000D+00  E= 2.029323D+00
              MO Center=  1.6D-19, -4.4D-18, -1.4D-15, r^2= 7.6D-01
   Bfn.  Coefficient  Atom+Function         Bfn.  Coefficient  Atom+Function  
  ----- ------------  ---------------      ----- ------------  ---------------
     4      0.972161  1 H  py                 9     -0.972161  2 H  py         

 Vector   10  Occ=0.000000D+00  E= 3.488667D+00
              MO Center=  6.0D-20, -6.6D-19, -4.4D-16, r^2= 7.0D-01
   Bfn.  Coefficient  Atom+Function         Bfn.  Coefficient  Atom+Function  
  ----- ------------  ---------------      ----- ------------  ---------------
     1      2.480029  1 H  s                  6     -2.480029  2 H  s          
     5     -1.968786  1 H  pz                10     -1.968786  2 H  pz         


 center of mass
 --------------
 x =   0.00000000 y =   0.00000000 z =   0.00000000

 moments of inertia (a.u.)
 ------------------
           1.041843622524           0.000000000000           0.000000000000
           0.000000000000           1.041843622524           0.000000000000
           0.000000000000           0.000000000000           0.000000000000

  Mulliken analysis of the total density
  --------------------------------------

    Atom       Charge   Shell Charges
 -----------   ------   -------------------------------------------------------
    1 H    1     1.00   0.69  0.30  0.01
    2 H    1     1.00   0.69  0.30  0.01

       Multipole analysis of the density wrt the origin
       ------------------------------------------------

     L   x y z        total         open         nuclear
     -   - - -        -----         ----         -------
     0   0 0 0      0.000000      0.000000      2.000000

     1   1 0 0     -0.000000      0.000000      0.000000
     1   0 1 0      0.000000      0.000000      0.000000
     1   0 0 1      0.000000      0.000000      0.000000

     2   2 0 0     -1.535841      0.000000      0.000000
     2   1 1 0      0.000000      0.000000      0.000000
     2   1 0 1      0.000000      0.000000      0.000000
     2   0 2 0     -1.535841      0.000000      0.000000
     2   0 1 1     -0.000000      0.000000      0.000000
     2   0 0 2     -1.075130      0.000000      1.033754


 Parallel integral file used       1 records with       0 large values


 Task  times  cpu:        0.1s     wall:        0.1s


                                NWChem Input Module
                                -------------------



                            NWChem Direct MCSCF Module
                            --------------------------


     -----------------------------------
       Basis functions:             10
       Inactive shells:              0
       Active shells:               10
       Active electrons:             2
       Symmetry:                    a       
       Multiplicity:                 1
       Orbital rotations:            0
     -----------------------------------

     -----------------------------------
       E2 extrapolation:             F
       Conjugacy:                    T
       Micro CI relax:               T
       Canonical orbitals:           T
       Maximum iterations:          20
       Converge threshold:    1.00E-04
       Conjugacy resets:            20
       Initial levelshift:        0.10
     -----------------------------------
 HVD ga_orthog  T

 global array: MO vectors[1:10,1:10],  handle: -1000 

            1           2           3           4           5           6  
       ----------- ----------- ----------- ----------- ----------- -----------
   1       0.40124     0.15411     0.70660    -0.78659    -0.00000     0.00000
   2       0.17863     1.89730    -0.72707     1.60417     0.00000     0.00000
   3      -0.00000    -0.00000     0.00000     0.00000     0.27721     0.51275
   4       0.00000     0.00000     0.00000    -0.00000     0.51275    -0.27721
   5      -0.02222    -0.01336    -0.01506    -0.39218     0.00000     0.00000
   6       0.40124    -0.15411     0.70660     0.78659    -0.00000     0.00000
   7       0.17863    -1.89730    -0.72707    -1.60417     0.00000     0.00000
   8       0.00000    -0.00000     0.00000    -0.00000     0.27721     0.51275
   9      -0.00000    -0.00000     0.00000     0.00000     0.51275    -0.27721
  10       0.02222    -0.01336     0.01506    -0.39218    -0.00000    -0.00000

            7           8           9          10  
       ----------- ----------- ----------- -----------
   1       0.44013     0.00000     0.00000     2.48003
   2      -0.21931    -0.00000    -0.00000     0.08779
   3      -0.00000     0.97216    -0.03505     0.00000
   4      -0.00000     0.03505     0.97216    -0.00000
   5       0.71416     0.00000     0.00000    -1.96879
   6       0.44013     0.00000     0.00000    -2.48003
   7      -0.21931    -0.00000    -0.00000    -0.08779
   8       0.00000    -0.97216     0.03505    -0.00000
   9       0.00000    -0.03505    -0.97216     0.00000
  10      -0.71416    -0.00000    -0.00000    -1.96879

 global array: orthog_mos: overlap[1:10,1:10],  handle: -999 

            1           2           3           4           5           6  
       ----------- ----------- ----------- ----------- ----------- -----------
   1       1.00000     0.68486     0.00000     0.00000    -0.00000     0.55393
   2       0.68486     1.00000     0.00000     0.00000    -0.00000     0.55936
   3       0.00000     0.00000     1.00000     0.00000     0.00000     0.00000
   4       0.00000     0.00000     0.00000     1.00000     0.00000     0.00000
   5      -0.00000    -0.00000     0.00000     0.00000     1.00000    -0.53228
   6       0.55393     0.55936     0.00000     0.00000    -0.53228     1.00000
   7       0.55936     0.88151     0.00000     0.00000    -0.16683     0.68486
   8       0.00000     0.00000     0.47164     0.00000     0.00000     0.00000
   9       0.00000     0.00000     0.00000     0.47164     0.00000     0.00000
  10       0.53228     0.16683     0.00000     0.00000    -0.23727     0.00000

            7           8           9          10  
       ----------- ----------- ----------- -----------
   1       0.55936     0.00000     0.00000     0.53228
   2       0.88151     0.00000     0.00000     0.16683
   3       0.00000     0.47164     0.00000     0.00000
   4       0.00000     0.00000     0.47164     0.00000
   5      -0.16683     0.00000     0.00000    -0.23727
   6       0.68486     0.00000     0.00000     0.00000
   7       1.00000     0.00000     0.00000     0.00000
   8       0.00000     1.00000     0.00000     0.00000
   9       0.00000     0.00000     1.00000     0.00000
  10       0.00000     0.00000     0.00000     1.00000

   input molecular orbitals = ./mcscf_h2_dat.movecs
  output molecular orbtials = ./mcscf_h2_dat.movecs

 HVD ga_orthog  T

 global array: MO vectors[1:10,1:10],  handle: -1000 

            1           2           3           4           5           6  
       ----------- ----------- ----------- ----------- ----------- -----------
   1       0.40124     0.15411     0.70660    -0.78659    -0.00000     0.00000
   2       0.17863     1.89730    -0.72707     1.60417     0.00000    -0.00000
   3      -0.00000    -0.00000     0.00000     0.00000     0.27721     0.51275
   4       0.00000     0.00000     0.00000    -0.00000     0.51275    -0.27721
   5      -0.02222    -0.01336    -0.01506    -0.39218     0.00000     0.00000
   6       0.40124    -0.15411     0.70660     0.78659    -0.00000     0.00000
   7       0.17863    -1.89730    -0.72707    -1.60417     0.00000    -0.00000
   8       0.00000    -0.00000     0.00000    -0.00000     0.27721     0.51275
   9      -0.00000    -0.00000     0.00000     0.00000     0.51275    -0.27721
  10       0.02222    -0.01336     0.01506    -0.39218    -0.00000    -0.00000

            7           8           9          10  
       ----------- ----------- ----------- -----------
   1       0.44013     0.00000     0.00000     2.48003
   2      -0.21931    -0.00000    -0.00000     0.08779
   3      -0.00000     0.97216    -0.03505     0.00000
   4      -0.00000     0.03505     0.97216    -0.00000
   5       0.71416     0.00000     0.00000    -1.96879
   6       0.44013     0.00000     0.00000    -2.48003
   7      -0.21931    -0.00000    -0.00000    -0.08779
   8       0.00000    -0.97216     0.03505    -0.00000
   9       0.00000    -0.03505    -0.97216     0.00000
  10      -0.71416    -0.00000    -0.00000    -1.96879

 global array: orthog_mos: overlap[1:10,1:10],  handle: -999 

            1           2           3           4           5           6  
       ----------- ----------- ----------- ----------- ----------- -----------
   1       1.00000     0.68486     0.00000     0.00000    -0.00000     0.55393
   2       0.68486     1.00000     0.00000     0.00000    -0.00000     0.55936
   3       0.00000     0.00000     1.00000     0.00000     0.00000     0.00000
   4       0.00000     0.00000     0.00000     1.00000     0.00000     0.00000
   5      -0.00000    -0.00000     0.00000     0.00000     1.00000    -0.53228
   6       0.55393     0.55936     0.00000     0.00000    -0.53228     1.00000
   7       0.55936     0.88151     0.00000     0.00000    -0.16683     0.68486
   8       0.00000     0.00000     0.47164     0.00000     0.00000     0.00000
   9       0.00000     0.00000     0.00000     0.47164     0.00000     0.00000
  10       0.53228     0.16683     0.00000     0.00000    -0.23727     0.00000

            7           8           9          10  
       ----------- ----------- ----------- -----------
   1       0.55936     0.00000     0.00000     0.53228
   2       0.88151     0.00000     0.00000     0.16683
   3       0.00000     0.47164     0.00000     0.00000
   4       0.00000     0.00000     0.47164     0.00000
   5      -0.16683     0.00000     0.00000    -0.23727
   6       0.68486     0.00000     0.00000     0.00000
   7       1.00000     0.00000     0.00000     0.00000
   8       0.00000     1.00000     0.00000     0.00000
   9       0.00000     0.00000     1.00000     0.00000
  10       0.00000     0.00000     0.00000     1.00000
       No. of determinants:           100


  Starting Orbital Energies
    -0.586176     0.193400     0.484334     0.922628     1.290703     1.290703
     1.936584     2.029323     2.029323     3.488667

  Orbital Symmetry Irreps
a    a    a    a    a    a    a    a    a    a   

 #quartets = 2.310D+02 #integrals = 5.870D+02 #direct =  0.0% #cached =100.0%


 Integral file          = ./mcscf_h2_dat.aoints.0
 Record size in doubles =    65536    No. of integs per rec  =    43688
 Max. records in memory =        3    Max. records in file   = ********
 No. of bits per label  =        8    No. of bits per value  =       64




          %%%%% MacroIteration   1 %%%%%


          Number of sigma calls:        8
                       o<<<<< (aa):             0.00
                       o<<<<< (bb):             0.00
                       o<<<<< (ab):             0.00
                       o<<<<< (total)           0.00
                       o<<<<< (aa) ff           0.00
                       o<<<<< (aa) gop          0.00
                       o<<<<< (aa) dot          0.00
                       o<<<<< (ab) str          0.00
                       o<<<<< (ab) gath         0.00
                       o<<<<< (ab) dotab        0.00
                       o<<<<< (ab) scat         0.00
                       o<<<<< (ab) sync         0.00
                       o<<<<< Density           0.00
                       o<<<<< Density one       0.00
                       o<<<<< Density two       0.00
                       o<<<<< Density ab        0.00
                       o<<<<< Spin adapt        0.00
                       o<<<<< Symm adapt        0.00

                       o<<<<< (ab) max sync:      0.00

           >>>| Valence CI:             -1.859139612056
           >>>| MCSCF energy:           -1.163672981196
           >>>| Gradient norm:          0.000000000D+00




     ==============================
            MCSCF Converged
     ==============================



          Canonical Eigenvalues

              1      
    1   -0.5862
    2    0.1934
    3    0.4843
    4    0.9226
    5    1.2907
    6    1.2907
    7    1.9366
    8    2.0293
    9    2.0293
   10    3.4887


          Converged CI vector

   Index           Coefficient          Config. Occupation
         1          0.99120670          1  1
        12         -0.05622967          2  2
        14          0.04826947          2  4
        23         -0.05033922          3  3
        32          0.04826947          4  2
        34         -0.05296200          4  4
        45         -0.03938290          5  5
        56         -0.03938290          6  6

          Number of sigma calls:        1
                       o<<<<< (aa):             0.00
                       o<<<<< (bb):             0.00
                       o<<<<< (ab):             0.00
                       o<<<<< (total)           0.00
                       o<<<<< (aa) ff           0.00
                       o<<<<< (aa) gop          0.00
                       o<<<<< (aa) dot          0.00
                       o<<<<< (ab) str          0.00
                       o<<<<< (ab) gath         0.00
                       o<<<<< (ab) dotab        0.00
                       o<<<<< (ab) scat         0.00
                       o<<<<< (ab) sync         0.00
                       o<<<<< Density           0.00
                       o<<<<< Density one       0.00
                       o<<<<< Density two       0.00
                       o<<<<< Density ab        0.00
                       o<<<<< Spin adapt        0.00
                       o<<<<< Symm adapt        0.00

                       o<<<<< (ab) max sync:      0.00
 HVD ga_orthog  T

 global array: MO vectors[1:10,1:10],  handle: -1000 

            1           2           3           4           5           6  
       ----------- ----------- ----------- ----------- ----------- -----------
   1       0.40760    -0.95240    -0.51968    -0.00000    -0.00000     0.64637
   2       0.17311    -0.24833     0.61455    -0.00000     0.00000    -0.44833
   3      -0.00000    -0.00000    -0.00000     0.32360     0.48481     0.00000
   4       0.00000     0.00000    -0.00000    -0.48481     0.32360    -0.00000
   5      -0.01915    -0.02572     0.25010     0.00000     0.00000     0.66920
   6       0.40760     0.95240    -0.51968     0.00000     0.00000     0.64637
   7       0.17311     0.24833     0.61455     0.00000    -0.00000    -0.44833
   8       0.00000     0.00000     0.00000     0.32360     0.48481    -0.00000
   9      -0.00000     0.00000     0.00000    -0.48481     0.32360     0.00000
  10       0.01915    -0.02572    -0.25010     0.00000     0.00000    -0.66920

            7           8           9          10  
       ----------- ----------- ----------- -----------
   1      -1.88074     0.00000    -0.00000    -1.53258
   2       1.85707    -0.00000     0.00000    -1.63415
   3       0.00000     0.75255    -0.61643    -0.00000
   4      -0.00000     0.61643     0.75255     0.00000
   5       1.05423    -0.00000     0.00000     1.70823
   6       1.88074    -0.00000     0.00000     1.53258
   7      -1.85707     0.00000    -0.00000     1.63415
   8      -0.00000    -0.75255     0.61643     0.00000
   9       0.00000    -0.61643    -0.75255    -0.00000
  10       1.05423    -0.00000     0.00000     1.70823

 global array: orthog_mos: overlap[1:10,1:10],  handle: -994 

            1           2           3           4           5           6  
       ----------- ----------- ----------- ----------- ----------- -----------
   1       1.00000     0.68486     0.00000     0.00000    -0.00000     0.55393
   2       0.68486     1.00000     0.00000     0.00000    -0.00000     0.55936
   3       0.00000     0.00000     1.00000     0.00000     0.00000     0.00000
   4       0.00000     0.00000     0.00000     1.00000     0.00000     0.00000
   5      -0.00000    -0.00000     0.00000     0.00000     1.00000    -0.53228
   6       0.55393     0.55936     0.00000     0.00000    -0.53228     1.00000
   7       0.55936     0.88151     0.00000     0.00000    -0.16683     0.68486
   8       0.00000     0.00000     0.47164     0.00000     0.00000     0.00000
   9       0.00000     0.00000     0.00000     0.47164     0.00000     0.00000
  10       0.53228     0.16683     0.00000     0.00000    -0.23727     0.00000

            7           8           9          10  
       ----------- ----------- ----------- -----------
   1       0.55936     0.00000     0.00000     0.53228
   2       0.88151     0.00000     0.00000     0.16683
   3       0.00000     0.47164     0.00000     0.00000
   4       0.00000     0.00000     0.47164     0.00000
   5      -0.16683     0.00000     0.00000    -0.23727
   6       0.68486     0.00000     0.00000     0.00000
   7       1.00000     0.00000     0.00000     0.00000
   8       0.00000     1.00000     0.00000     0.00000
   9       0.00000     0.00000     1.00000     0.00000
  10       0.00000     0.00000     0.00000     1.00000



          Natural orbital occupation numbers

              1      
    1    1.9652
    2    0.0218
    3    0.0061
    4    0.0031
    5    0.0031
    6    0.0002
    7    0.0002
    8    0.0002
    9    0.0002
   10    0.0000


          Number of sigma calls:       13
                       o<<<<< (aa):             0.00
                       o<<<<< (bb):             0.00
                       o<<<<< (ab):             0.00
                       o<<<<< (total)           0.00
                       o<<<<< (aa) ff           0.00
                       o<<<<< (aa) gop          0.00
                       o<<<<< (aa) dot          0.00
                       o<<<<< (ab) str          0.00
                       o<<<<< (ab) gath         0.00
                       o<<<<< (ab) dotab        0.00
                       o<<<<< (ab) scat         0.00
                       o<<<<< (ab) sync         0.00
                       o<<<<< Density           0.00
                       o<<<<< Density one       0.00
                       o<<<<< Density two       0.00
                       o<<<<< Density ab        0.00
                       o<<<<< Spin adapt        0.00
                       o<<<<< Symm adapt        0.00

                       o<<<<< (ab) max sync:      0.00


       Final MCSCF results 
       ------------------- 

       Total MCSCF energy =     -1.163672981196
            Gradient norm =      0.0D+00

    CPU time for solution =      0.1s
   Wall time for solution =      0.1s



                        Analysis of MCSCF natural orbitals
                        ----------------------------------

 Vector    1  Occ=1.965218D+00  E=-5.861760D-01  Symmetry=a
              MO Center=  2.6D-20, -2.4D-19, -4.8D-16, r^2= 7.2D-01
   Bfn.  Coefficient  Atom+Function         Bfn.  Coefficient  Atom+Function  
  ----- ------------  ---------------      ----- ------------  ---------------
     1      0.407596  1 H  s                  6      0.407596  2 H  s          
     2      0.173112  1 H  s                  7      0.173112  2 H  s          

 Vector    2  Occ=2.176598D-02  E= 1.933997D-01  Symmetry=a
              MO Center=  2.0D-18, -2.7D-18, -9.3D-16, r^2= 7.4D-01
   Bfn.  Coefficient  Atom+Function         Bfn.  Coefficient  Atom+Function  
  ----- ------------  ---------------      ----- ------------  ---------------
     1      0.952397  1 H  s                  6     -0.952397  2 H  s          
     2      0.248330  1 H  s                  7     -0.248330  2 H  s          

 Vector    3  Occ=6.118043D-03  E= 4.843340D-01  Symmetry=a
              MO Center= -7.8D-19, -1.2D-19,  9.5D-16, r^2= 1.9D+00
   Bfn.  Coefficient  Atom+Function         Bfn.  Coefficient  Atom+Function  
  ----- ------------  ---------------      ----- ------------  ---------------
     2      0.614550  1 H  s                  7      0.614550  2 H  s          
     1     -0.519676  1 H  s                  6     -0.519676  2 H  s          
     5      0.250103  1 H  pz                10     -0.250103  2 H  pz         

 Vector    4  Occ=3.102025D-03  E= 9.226285D-01  Symmetry=a
              MO Center= -1.9D-18,  2.8D-18,  2.1D-16, r^2= 5.8D-01
   Bfn.  Coefficient  Atom+Function         Bfn.  Coefficient  Atom+Function  
  ----- ------------  ---------------      ----- ------------  ---------------
     4      0.484808  1 H  py                 9      0.484808  2 H  py         
     3     -0.323602  1 H  px                 8     -0.323602  2 H  px         

 Vector    5  Occ=3.102025D-03  E= 1.290703D+00  Symmetry=a
              MO Center=  1.3D-18,  8.7D-19, -4.2D-17, r^2= 5.8D-01
   Bfn.  Coefficient  Atom+Function         Bfn.  Coefficient  Atom+Function  
  ----- ------------  ---------------      ----- ------------  ---------------
     3      0.484808  1 H  px                 8      0.484808  2 H  px         
     4      0.323602  1 H  py                 9      0.323602  2 H  py         

 Vector    6  Occ=2.066995D-04  E= 1.290703D+00  Symmetry=a
              MO Center=  1.4D-18, -3.4D-18,  3.6D-15, r^2= 1.2D+00
   Bfn.  Coefficient  Atom+Function         Bfn.  Coefficient  Atom+Function  
  ----- ------------  ---------------      ----- ------------  ---------------
     5      0.669202  1 H  pz                10     -0.669202  2 H  pz         
     1      0.646367  1 H  s                  6      0.646367  2 H  s          
     2     -0.448334  1 H  s                  7     -0.448334  2 H  s          

 Vector    7  Occ=1.592420D-04  E= 1.936584D+00  Symmetry=a
              MO Center=  1.9D-15, -9.0D-16,  5.0D-16, r^2= 2.1D+00
   Bfn.  Coefficient  Atom+Function         Bfn.  Coefficient  Atom+Function  
  ----- ------------  ---------------      ----- ------------  ---------------
     1      1.880736  1 H  s                  6     -1.880736  2 H  s          
     2     -1.857073  1 H  s                  7      1.857073  2 H  s          
     5     -1.054229  1 H  pz                10     -1.054229  2 H  pz         

 Vector    8  Occ=1.574801D-04  E= 2.029323D+00  Symmetry=a
              MO Center= -6.7D-16, -5.5D-16,  5.6D-17, r^2= 7.6D-01
   Bfn.  Coefficient  Atom+Function         Bfn.  Coefficient  Atom+Function  
  ----- ------------  ---------------      ----- ------------  ---------------
     3      0.752555  1 H  px                 8     -0.752555  2 H  px         
     4      0.616430  1 H  py                 9     -0.616430  2 H  py         

 Vector    9  Occ=1.574801D-04  E= 2.029323D+00  Symmetry=a
              MO Center= -1.2D-15,  1.5D-15, -2.5D-16, r^2= 7.6D-01
   Bfn.  Coefficient  Atom+Function         Bfn.  Coefficient  Atom+Function  
  ----- ------------  ---------------      ----- ------------  ---------------
     4      0.752555  1 H  py                 9     -0.752555  2 H  py         
     3     -0.616430  1 H  px                 8      0.616430  2 H  px         

 Vector   10  Occ=1.324438D-05  E= 3.488667D+00  Symmetry=a
              MO Center=  4.1D-17, -5.9D-17, -4.1D-15, r^2= 2.1D+00
   Bfn.  Coefficient  Atom+Function         Bfn.  Coefficient  Atom+Function  
  ----- ------------  ---------------      ----- ------------  ---------------
     5      1.708229  1 H  pz                10      1.708229  2 H  pz         
     2     -1.634147  1 H  s                  7      1.634147  2 H  s          
     1     -1.532575  1 H  s                  6      1.532575  2 H  s          


 Wrote Lagrangian and 1- and 2-particle density matrices to ./mcscf_h2_dat.mcpdm


     Multipole analysis of the density
     ---------------------------------

     L   x y z        total        nuclear
     -   - - -        -----        -------
     0   0 0 0     -0.000000      2.000000

     1   1 0 0     -0.000000      0.000000
     1   0 1 0      0.000000      0.000000
     1   0 0 1      0.000000      0.000000

     2   2 0 0     -1.510272      0.000000
     2   1 1 0      0.000000      0.000000
     2   1 0 1     -0.000000      0.000000
     2   0 2 0     -1.510272      0.000000
     2   0 1 1     -0.000000      0.000000
     2   0 0 2     -1.089141      1.033754


  Mulliken analysis of the total density
  --------------------------------------

    Atom       Charge   Shell Charges
 -----------   ------   -------------------------------------------------------
    1 H    1     1.00   0.70  0.29  0.01
    2 H    1     1.00   0.70  0.29  0.01

    Mulliken analysis of the active space density
    ---------------------------------------------

    Atom       Charge   Shell Charges
 -----------   ------   -------------------------------------------------------
    1 H    1     1.00   0.70  0.29  0.01
    2 H    1     1.00   0.70  0.29  0.01

 Parallel integral file used       1 records with       0 large values


 Task  times  cpu:        0.1s     wall:        0.1s


                                NWChem Input Module
                                -------------------


 Summary of allocated global arrays
-----------------------------------
  No active global arrays


MA_summarize_allocated_blocks: starting scan ...
MA_summarize_allocated_blocks: scan completed: 0 heap blocks, 0 stack blocks
MA usage statistics:

	allocation statistics:
					      heap	     stack
					      ----	     -----
	current number of blocks	         0	         0
	maximum number of blocks	        18	        21
	current total bytes		         0	         0
	maximum total bytes		   1643704	  22509176
	maximum total K-bytes		      1644	     22510
	maximum total M-bytes		         2	        23


                                     CITATION
                                     --------
                Please cite the following reference when publishing
                           results obtained with NWChem:

          E. Apra, E. J. Bylaska, W. A. de Jong, N. Govind, K. Kowalski,
       T. P. Straatsma, M. Valiev, H. J. J. van Dam, Y. Alexeev, J. Anchell,
       V. Anisimov, F. W. Aquino, R. Atta-Fynn, J. Autschbach, N. P. Bauman,
     J. C. Becca, D. E. Bernholdt, K. Bhaskaran-Nair, S. Bogatko, P. Borowski,
         J. Boschen, J. Brabec, A. Bruner, E. Cauet, Y. Chen, G. N. Chuev,
      C. J. Cramer, J. Daily, M. J. O. Deegan, T. H. Dunning Jr., M. Dupuis,
   K. G. Dyall, G. I. Fann, S. A. Fischer, A. Fonari, H. Fruchtl, L. Gagliardi,
      J. Garza, N. Gawande, S. Ghosh, K. Glaesemann, A. W. Gotz, J. Hammond,
       V. Helms, E. D. Hermes, K. Hirao, S. Hirata, M. Jacquelin, L. Jensen,
   B. G. Johnson, H. Jonsson, R. A. Kendall, M. Klemm, R. Kobayashi, V. Konkov,
      S. Krishnamoorthy, M. Krishnan, Z. Lin, R. D. Lins, R. J. Littlefield,
      A. J. Logsdail, K. Lopata, W. Ma, A. V. Marenich, J. Martin del Campo,
   D. Mejia-Rodriguez, J. E. Moore, J. M. Mullin, T. Nakajima, D. R. Nascimento,
    J. A. Nichols, P. J. Nichols, J. Nieplocha, A. Otero-de-la-Roza, B. Palmer,
    A. Panyala, T. Pirojsirikul, B. Peng, R. Peverati, J. Pittner, L. Pollack,
   R. M. Richard, P. Sadayappan, G. C. Schatz, W. A. Shelton, D. W. Silverstein,
   D. M. A. Smith, T. A. Soares, D. Song, M. Swart, H. L. Taylor, G. S. Thomas,
            V. Tipparaju, D. G. Truhlar, K. Tsemekhman, T. Van Voorhis,
      A. Vazquez-Mayagoitia, P. Verma, O. Villa, A. Vishnu, K. D. Vogiatzis,
        D. Wang, J. H. Weare, M. J. Williamson, T. L. Windus, K. Wolinski,
        A. T. Wong, Q. Wu, C. Yang, Q. Yu, M. Zacharias, Z. Zhang, Y. Zhao,
                                and R. J. Harrison
                        "NWChem: Past, present, and future
                         J. Chem. Phys. 152, 184102 (2020)
                               doi:10.1063/5.0004997

                                      AUTHORS
                                      -------
  E. Apra, E. J. Bylaska, N. Govind, K. Kowalski, M. Valiev, D. Mejia-Rodriguez,
       A. Kunitsa, N. P. Bauman, A. Panyala, W. A. de Jong, T. P. Straatsma,
   H. J. J. van Dam, D. Wang, T. L. Windus, J. Hammond, J. Autschbach, A. Woods,
    K. Bhaskaran-Nair, J. Brabec, K. Lopata, S. A. Fischer, S. Krishnamoorthy,
     M. Jacquelin, W. Ma, M. Klemm, O. Villa, Y. Chen, V. Anisimov, F. Aquino,
     S. Hirata, M. T. Hackler, E. Hermes, L. Jensen, J. E. Moore, J. C. Becca,
      V. Konjkov, T. Risthaus, M. Malagoli, A. Marenich, A. Otero-de-la-Roza,
        J. Mullin, P. Nichols, R. Peverati, J. Pittner, Y. Zhao, P.-D. Fan,
        A. Fonari, M. J. Williamson, R. J. Harrison, J. R. Rehr, M. Dupuis,
     D. Silverstein, D. M. A. Smith, J. Nieplocha, V. Tipparaju, M. Krishnan,
     B. E. Van Kuiken, A. Vazquez-Mayagoitia, M. Swart, Q. Wu, T. Van Voorhis,
     A. A. Auer, M. Nooijen, L. D. Crosby, E. Brown, G. Cisneros, G. I. Fann,
   H. Fruchtl, J. Garza, K. Hirao, R. A. Kendall, J. A. Nichols, K. Tsemekhman,
    K. Wolinski, J. Anchell, D. E. Bernholdt, P. Borowski, T. Clark, D. Clerc,
   H. Dachsel, M. J. O. Deegan, K. Dyall, D. Elwood, E. Glendening, M. Gutowski,
   A. C. Hess, J. Jaffe, B. G. Johnson, J. Ju, R. Kobayashi, R. Kutteh, Z. Lin,
   R. Littlefield, X. Long, B. Meng, T. Nakajima, S. Niu, L. Pollack, M. Rosing,
   K. Glaesemann, G. Sandrone, M. Stave, H. Taylor, G. Thomas, J. H. van Lenthe,
                               A. T. Wong, Z. Zhang.

 Total times  cpu:        0.3s     wall:        0.3s
