 argument  1 = noft_h2_ccpvdz_eq.nw



============================== echo of input deck ==============================
echo
start h2_noft

scratch_dir   .
permanent_dir .

geometry units angstrom noautosym
H        0.0000000000      0.0000000000      0.38044762000
H        0.0000000000      0.0000000000     -0.38044762000
end

basis spherical
  * library "cc-pvdz"
end

scf
  uhf
  vectors input atomic output h2_noft_dat.movecs
end

noft
  temperature 0.0
  restricted
  pairrotation
  c_ab 0.25
  p_ab 0.5233
  maxiter 1000
  vectors input h2_noft_dat.movecs output h2_noft_dat.movecs
end

task scf  energy
task noft energy
================================================================================


                                         
                                         


             Northwest Computational Chemistry Package (NWChem) 7.2.1
             --------------------------------------------------------


                    Environmental Molecular Sciences Laboratory
                       Pacific Northwest National Laboratory
                                Richland, WA 99352

                              Copyright (c) 1994-2022
                       Pacific Northwest National Laboratory
                            Battelle Memorial Institute

             NWChem is an open-source computational chemistry package
                        distributed under the terms of the
                      Educational Community License (ECL) 2.0
             A copy of the license is included with this distribution
                              in the LICENSE.TXT file

                                  ACKNOWLEDGMENT
                                  --------------

            This software and its documentation were developed at the
            EMSL at Pacific Northwest National Laboratory, a multiprogram
            national laboratory, operated for the U.S. Department of Energy
            by Battelle under Contract Number DE-AC05-76RL01830. Support
            for this work was provided by the Department of Energy Office
            of Biological and Environmental Research, Office of Basic
            Energy Sciences, and the Office of Advanced Scientific Computing.


           Job information
           ---------------

    hostname        = lima-apptainer-al9
    program         = ../../../bin/LINUX64/nwchem
    date            = Wed Apr  2 07:37:30 2025

    compiled        = Tue_Apr_01_22:09:01_2025
    source          = /Users/hubertusvandam/Documents/nwchem-1-noft.nosync
    nwchem branch   = 7.2.1
    nwchem revision = nwchem_on_git-5497-gf3600c6837
    ga revision     = 5.8.0
    use scalapack   = F
    input           = noft_h2_ccpvdz_eq.nw
    prefix          = h2_noft.
    data base       = ./h2_noft.db
    status          = startup
    nproc           =        1
    time left       =     -1s



           Memory information
           ------------------

    heap     =     26214398 doubles =      200.0 Mbytes
    stack    =     26214395 doubles =      200.0 Mbytes
    global   =     52428800 doubles =      400.0 Mbytes (distinct from heap & stack)
    total    =    104857593 doubles =      800.0 Mbytes
    verify   = yes
    hardfail = no 


           Directory information
           ---------------------

  0 permanent = .
  0 scratch   = .




                                NWChem Input Module
                                -------------------



 Scaling coordinates for geometry "geometry" by  1.889725989
 (inverse scale =  0.529177249)


          ------
          auto-z
          ------
  no constraints, skipping    0.0000000000000000     
  no constraints, skipping    0.0000000000000000     


                             Geometry "geometry" -> ""
                             -------------------------

 Output coordinates in angstroms (scale by  1.889725989 to convert to a.u.)

  No.       Tag          Charge          X              Y              Z
 ---- ---------------- ---------- -------------- -------------- --------------
    1 H                    1.0000     0.00000000     0.00000000     0.38044762
    2 H                    1.0000     0.00000000     0.00000000    -0.38044762

      Atomic Mass 
      ----------- 

      H                  1.007825


 Effective nuclear repulsion energy (a.u.)       0.6954666309

            Nuclear Dipole moment (a.u.) 
            ----------------------------
        X                 Y               Z
 ---------------- ---------------- ----------------
     0.0000000000     0.0000000000     0.0000000000



                                Z-matrix (autoz)
                                -------- 

 Units are Angstrom for bonds and degrees for angles

      Type          Name      I     J     K     L     M      Value
      ----------- --------  ----- ----- ----- ----- ----- ----------
    1 Stretch                  1     2                       0.76090


            XYZ format geometry
            -------------------
     2
 geometry
 H                     0.00000000     0.00000000     0.38044762
 H                     0.00000000     0.00000000    -0.38044762



 Summary of "ao basis" -> "" (spherical)
 ------------------------------------------------------------------------------
       Tag                 Description            Shells   Functions and Types
 ---------------- ------------------------------  ------  ---------------------
 *                          cc-pvdz                   on all atoms 


                      Basis "ao basis" -> "ao basis" (spherical)
                      -----
  H (Hydrogen)
  ------------
            Exponent  Coefficients 
       -------------- ---------------------------------------------------------
  1 S  1.30100000E+01  0.019685
  1 S  1.96200000E+00  0.137977
  1 S  4.44600000E-01  0.478148

  2 S  1.22000000E-01  1.000000

  3 P  7.27000000E-01  1.000000



 Summary of "ao basis" -> "ao basis" (spherical)
 ------------------------------------------------------------------------------
       Tag                 Description            Shells   Functions and Types
 ---------------- ------------------------------  ------  ---------------------
 H                          cc-pvdz                  3        5   2s1p


                                 NWChem SCF Module
                                 -----------------



  ao basis        = "ao basis"
  functions       =    10
  atoms           =     2
  alpha electrons =     1
  beta  electrons =     1
  charge          =   0.00
  wavefunction    = UHF 
  input vectors   = atomic
  output vectors  = ./h2_noft_dat.movecs
  use symmetry    = F
  symmetry adapt  = F


 Summary of "ao basis" -> "ao basis" (spherical)
 ------------------------------------------------------------------------------
       Tag                 Description            Shells   Functions and Types
 ---------------- ------------------------------  ------  ---------------------
 H                          cc-pvdz                  3        5   2s1p



 Forming initial guess at       0.2s


      Superposition of Atomic Density Guess
      -------------------------------------

 Sum of atomic energies:          -0.99855800
 HVD ga_orthog  T

 global array: scf_init: alpha MOs[1:10,1:10],  handle: -1000 

            1           2           3           4           5           6  
       ----------- ----------- ----------- ----------- ----------- -----------
   1       0.56883     0.06374    -0.52743     0.00000     0.00000    -0.41518
   2      -0.02005    -0.69400     0.40386    -0.00000    -0.00000    -0.13401
   3      -0.00000    -0.00000     0.00000     0.68293     0.18333    -0.00000
   4       0.00000    -0.00000     0.00000    -0.18333     0.68293    -0.00000
   5      -0.41956     0.11958    -0.24230     0.00000     0.00000    -0.55648
   6      -0.56883    -0.06374    -0.52743    -0.00000     0.00000     0.41518
   7       0.02005     0.69400     0.40386     0.00000    -0.00000     0.13401
   8       0.00000     0.00000    -0.00000    -0.68293    -0.18333    -0.00000
   9      -0.00000     0.00000    -0.00000     0.18333    -0.68293    -0.00000
  10      -0.41956     0.11958     0.24230    -0.00000    -0.00000    -0.55648

            7           8           9          10  
       ----------- ----------- ----------- -----------
   1       0.06995     0.00000     0.00000    -0.46575
   2      -0.29258     0.00000     0.00000    -0.50129
   3      -0.00000    -0.66686    -0.23516    -0.00000
   4       0.00000     0.23516    -0.66686    -0.00000
   5      -0.63992     0.00000     0.00000     0.17829
   6       0.06995    -0.00000    -0.00000    -0.46575
   7      -0.29258    -0.00000    -0.00000    -0.50129
   8      -0.00000    -0.66686    -0.23516    -0.00000
   9       0.00000     0.23516    -0.66686    -0.00000
  10       0.63992     0.00000     0.00000    -0.17829

 global array: Temp HCore[1:10,1:10],  handle: -993 

            1           2           3           4           5           6  
       ----------- ----------- ----------- ----------- ----------- -----------
   1       1.00000     0.68486     0.00000     0.00000    -0.00000     0.55393
   2       0.68486     1.00000     0.00000     0.00000    -0.00000     0.55936
   3       0.00000     0.00000     1.00000     0.00000     0.00000     0.00000
   4       0.00000     0.00000     0.00000     1.00000     0.00000     0.00000
   5      -0.00000    -0.00000     0.00000     0.00000     1.00000    -0.53228
   6       0.55393     0.55936     0.00000     0.00000    -0.53228     1.00000
   7       0.55936     0.88151     0.00000     0.00000    -0.16683     0.68486
   8       0.00000     0.00000     0.47164     0.00000     0.00000     0.00000
   9       0.00000     0.00000     0.00000     0.47164     0.00000     0.00000
  10       0.53228     0.16683     0.00000     0.00000    -0.23727     0.00000

            7           8           9          10  
       ----------- ----------- ----------- -----------
   1       0.55936     0.00000     0.00000     0.53228
   2       0.88151     0.00000     0.00000     0.16683
   3       0.00000     0.47164     0.00000     0.00000
   4       0.00000     0.00000     0.47164     0.00000
   5      -0.16683     0.00000     0.00000    -0.23727
   6       0.68486     0.00000     0.00000     0.00000
   7       1.00000     0.00000     0.00000     0.00000
   8       0.00000     1.00000     0.00000     0.00000
   9       0.00000     0.00000     1.00000     0.00000
  10       0.00000     0.00000     0.00000     1.00000

      Non-variational initial energy
      ------------------------------

 Total energy =      -0.848623
 1-e energy   =      -2.198856
 2-e energy   =       0.654767
 HOMO         =      -0.573388
 LUMO         =       0.137947


 Starting SCF solution at       0.2s



 ----------------------------------------------
         Quadratically convergent UHF

 Convergence threshold     :          1.000E-04
 Maximum no. of iterations :           30
 Integral*density screening:          1.000E-07
 ----------------------------------------------


              iter       energy          gnorm     gmax       time
             ----- ------------------- --------- --------- --------
                 1       -1.1272508863  7.23D-02  4.85D-02      0.2
                 2       -1.1286275766  3.47D-03  2.20D-03      0.2
                 3       -1.1286294414  3.55D-07  2.23D-07      0.2


       Final UHF  results 
       ------------------ 

         Total SCF energy =     -1.128629441420
      One electron energy =     -2.475840214135
      Two electron energy =      0.651744141856
 Nuclear repulsion energy =      0.695466630859

                       Sz =      0.0000
                 Sz(Sz+1) =      0.0000
                      S^2 =      0.0000

        Time for solution =      0.0s


          Final alpha eigenvalues
          -----------------------

              1      
    1   -0.5862
    2    0.1934
    3    0.4843
    4    0.9226
    5    1.2907
    6    1.2907
    7    1.9366
    8    2.0293
    9    2.0293
   10    3.4887

          Final beta eigenvalues
          ----------------------

              1      
    1   -0.5862
    2    0.1934
    3    0.4843
    4    0.9226
    5    1.2907
    6    1.2907
    7    1.9366
    8    2.0293
    9    2.0293
   10    3.4887

                    UHF Final Alpha Molecular Orbital Analysis
                    ------------------------------------------

 Vector    1  Occ=1.000000D+00  E=-5.861760D-01
              MO Center=  6.7D-18, -5.9D-17, -1.2D-16, r^2= 7.3D-01
   Bfn.  Coefficient  Atom+Function         Bfn.  Coefficient  Atom+Function  
  ----- ------------  ---------------      ----- ------------  ---------------
     1      0.401244  1 H  s                  6      0.401244  2 H  s          
     2      0.178633  1 H  s                  7      0.178633  2 H  s          

 Vector    2  Occ=0.000000D+00  E= 1.933997D-01
              MO Center=  1.8D-19,  2.4D-18,  1.6D-15, r^2= 2.7D+00
   Bfn.  Coefficient  Atom+Function         Bfn.  Coefficient  Atom+Function  
  ----- ------------  ---------------      ----- ------------  ---------------
     2      1.897303  1 H  s                  7     -1.897303  2 H  s          
     1      0.154109  1 H  s                  6     -0.154109  2 H  s          

 Vector    3  Occ=0.000000D+00  E= 4.843340D-01
              MO Center= -1.7D-17,  4.0D-17,  9.7D-17, r^2= 2.3D+00
   Bfn.  Coefficient  Atom+Function         Bfn.  Coefficient  Atom+Function  
  ----- ------------  ---------------      ----- ------------  ---------------
     2     -0.727074  1 H  s                  7     -0.727074  2 H  s          
     1      0.706595  1 H  s                  6      0.706595  2 H  s          

 Vector    4  Occ=0.000000D+00  E= 9.226285D-01
              MO Center= -1.1D-18,  4.9D-18,  1.1D-15, r^2= 1.6D+00
   Bfn.  Coefficient  Atom+Function         Bfn.  Coefficient  Atom+Function  
  ----- ------------  ---------------      ----- ------------  ---------------
     2      1.604169  1 H  s                  7     -1.604169  2 H  s          
     1     -0.786588  1 H  s                  6      0.786588  2 H  s          
     5     -0.392184  1 H  pz                10     -0.392184  2 H  pz         

 Vector    5  Occ=0.000000D+00  E= 1.290703D+00
              MO Center=  1.9D-18, -1.2D-18, -4.9D-16, r^2= 5.8D-01
   Bfn.  Coefficient  Atom+Function         Bfn.  Coefficient  Atom+Function  
  ----- ------------  ---------------      ----- ------------  ---------------
     3      0.486666  1 H  px                 8      0.486666  2 H  px         
     4     -0.320801  1 H  py                 9     -0.320801  2 H  py         

 Vector    6  Occ=0.000000D+00  E= 1.290703D+00
              MO Center= -5.4D-17, -8.2D-17,  4.3D-16, r^2= 5.8D-01
   Bfn.  Coefficient  Atom+Function         Bfn.  Coefficient  Atom+Function  
  ----- ------------  ---------------      ----- ------------  ---------------
     4      0.486666  1 H  py                 9      0.486666  2 H  py         
     3      0.320801  1 H  px                 8      0.320801  2 H  px         

 Vector    7  Occ=0.000000D+00  E= 1.936584D+00
              MO Center=  5.4D-17,  8.0D-17,  5.6D-16, r^2= 8.1D-01
   Bfn.  Coefficient  Atom+Function         Bfn.  Coefficient  Atom+Function  
  ----- ------------  ---------------      ----- ------------  ---------------
     5      0.714164  1 H  pz                10     -0.714164  2 H  pz         
     1      0.440130  1 H  s                  6      0.440130  2 H  s          
     2     -0.219308  1 H  s                  7     -0.219308  2 H  s          

 Vector    8  Occ=0.000000D+00  E= 2.029323D+00
              MO Center= -2.6D-18,  2.3D-19,  1.6D-16, r^2= 7.6D-01
   Bfn.  Coefficient  Atom+Function         Bfn.  Coefficient  Atom+Function  
  ----- ------------  ---------------      ----- ------------  ---------------
     3      0.969028  1 H  px                 8     -0.969028  2 H  px         

 Vector    9  Occ=0.000000D+00  E= 2.029323D+00
              MO Center= -4.6D-19, -5.2D-18, -9.4D-16, r^2= 7.6D-01
   Bfn.  Coefficient  Atom+Function         Bfn.  Coefficient  Atom+Function  
  ----- ------------  ---------------      ----- ------------  ---------------
     4      0.969028  1 H  py                 9     -0.969028  2 H  py         

 Vector   10  Occ=0.000000D+00  E= 3.488667D+00
              MO Center=  4.8D-20,  8.4D-20, -4.4D-16, r^2= 7.0D-01
   Bfn.  Coefficient  Atom+Function         Bfn.  Coefficient  Atom+Function  
  ----- ------------  ---------------      ----- ------------  ---------------
     1      2.480029  1 H  s                  6     -2.480029  2 H  s          
     5     -1.968786  1 H  pz                10     -1.968786  2 H  pz         


                     UHF Final Beta Molecular Orbital Analysis
                     -----------------------------------------

 Vector    1  Occ=1.000000D+00  E=-5.861760D-01
              MO Center=  6.7D-18, -5.9D-17, -1.2D-16, r^2= 7.3D-01
   Bfn.  Coefficient  Atom+Function         Bfn.  Coefficient  Atom+Function  
  ----- ------------  ---------------      ----- ------------  ---------------
     1      0.401244  1 H  s                  6      0.401244  2 H  s          
     2      0.178633  1 H  s                  7      0.178633  2 H  s          

 Vector    2  Occ=0.000000D+00  E= 1.933997D-01
              MO Center=  1.8D-19,  2.4D-18,  1.6D-15, r^2= 2.7D+00
   Bfn.  Coefficient  Atom+Function         Bfn.  Coefficient  Atom+Function  
  ----- ------------  ---------------      ----- ------------  ---------------
     2      1.897303  1 H  s                  7     -1.897303  2 H  s          
     1      0.154109  1 H  s                  6     -0.154109  2 H  s          

 Vector    3  Occ=0.000000D+00  E= 4.843340D-01
              MO Center= -1.7D-17,  4.0D-17,  9.7D-17, r^2= 2.3D+00
   Bfn.  Coefficient  Atom+Function         Bfn.  Coefficient  Atom+Function  
  ----- ------------  ---------------      ----- ------------  ---------------
     2     -0.727074  1 H  s                  7     -0.727074  2 H  s          
     1      0.706595  1 H  s                  6      0.706595  2 H  s          

 Vector    4  Occ=0.000000D+00  E= 9.226285D-01
              MO Center= -1.1D-18,  4.9D-18,  1.1D-15, r^2= 1.6D+00
   Bfn.  Coefficient  Atom+Function         Bfn.  Coefficient  Atom+Function  
  ----- ------------  ---------------      ----- ------------  ---------------
     2      1.604169  1 H  s                  7     -1.604169  2 H  s          
     1     -0.786588  1 H  s                  6      0.786588  2 H  s          
     5     -0.392184  1 H  pz                10     -0.392184  2 H  pz         

 Vector    5  Occ=0.000000D+00  E= 1.290703D+00
              MO Center=  1.9D-18, -1.2D-18, -4.9D-16, r^2= 5.8D-01
   Bfn.  Coefficient  Atom+Function         Bfn.  Coefficient  Atom+Function  
  ----- ------------  ---------------      ----- ------------  ---------------
     3      0.486666  1 H  px                 8      0.486666  2 H  px         
     4     -0.320801  1 H  py                 9     -0.320801  2 H  py         

 Vector    6  Occ=0.000000D+00  E= 1.290703D+00
              MO Center= -5.4D-17, -8.2D-17,  4.3D-16, r^2= 5.8D-01
   Bfn.  Coefficient  Atom+Function         Bfn.  Coefficient  Atom+Function  
  ----- ------------  ---------------      ----- ------------  ---------------
     4      0.486666  1 H  py                 9      0.486666  2 H  py         
     3      0.320801  1 H  px                 8      0.320801  2 H  px         

 Vector    7  Occ=0.000000D+00  E= 1.936584D+00
              MO Center=  5.4D-17,  8.0D-17,  5.6D-16, r^2= 8.1D-01
   Bfn.  Coefficient  Atom+Function         Bfn.  Coefficient  Atom+Function  
  ----- ------------  ---------------      ----- ------------  ---------------
     5      0.714164  1 H  pz                10     -0.714164  2 H  pz         
     1      0.440130  1 H  s                  6      0.440130  2 H  s          
     2     -0.219308  1 H  s                  7     -0.219308  2 H  s          

 Vector    8  Occ=0.000000D+00  E= 2.029323D+00
              MO Center= -2.6D-18,  2.3D-19,  1.6D-16, r^2= 7.6D-01
   Bfn.  Coefficient  Atom+Function         Bfn.  Coefficient  Atom+Function  
  ----- ------------  ---------------      ----- ------------  ---------------
     3      0.969028  1 H  px                 8     -0.969028  2 H  px         

 Vector    9  Occ=0.000000D+00  E= 2.029323D+00
              MO Center= -4.6D-19, -5.2D-18, -9.4D-16, r^2= 7.6D-01
   Bfn.  Coefficient  Atom+Function         Bfn.  Coefficient  Atom+Function  
  ----- ------------  ---------------      ----- ------------  ---------------
     4      0.969028  1 H  py                 9     -0.969028  2 H  py         

 Vector   10  Occ=0.000000D+00  E= 3.488667D+00
              MO Center=  4.8D-20,  8.4D-20, -4.4D-16, r^2= 7.0D-01
   Bfn.  Coefficient  Atom+Function         Bfn.  Coefficient  Atom+Function  
  ----- ------------  ---------------      ----- ------------  ---------------
     1      2.480029  1 H  s                  6     -2.480029  2 H  s          
     5     -1.968786  1 H  pz                10     -1.968786  2 H  pz         


 center of mass
 --------------
 x =   0.00000000 y =   0.00000000 z =   0.00000000

 moments of inertia (a.u.)
 ------------------
           1.041843622524           0.000000000000           0.000000000000
           0.000000000000           1.041843622524           0.000000000000
           0.000000000000           0.000000000000           0.000000000000

  Mulliken analysis of the total density
  --------------------------------------

    Atom       Charge   Shell Charges
 -----------   ------   -------------------------------------------------------
    1 H    1     1.00   0.69  0.30  0.01
    2 H    1     1.00   0.69  0.30  0.01

  Mulliken analysis of the alpha density
  --------------------------------------

    Atom       Charge   Shell Charges
 -----------   ------   -------------------------------------------------------
    1 H    1     0.50   0.34  0.15  0.01
    2 H    1     0.50   0.34  0.15  0.01

   Mulliken analysis of the beta density
   -------------------------------------

    Atom       Charge   Shell Charges
 -----------   ------   -------------------------------------------------------
    1 H    1     0.50   0.34  0.15  0.01
    2 H    1     0.50   0.34  0.15  0.01

   Mulliken analysis of the spin density
   -------------------------------------

    Atom       Charge   Shell Charges
 -----------   ------   -------------------------------------------------------
    1 H    1     0.00   0.00  0.00  0.00
    2 H    1     0.00   0.00  0.00  0.00

       Multipole analysis of the density wrt the origin
       ------------------------------------------------

     L   x y z        total         alpha         beta         nuclear
     -   - - -        -----         -----         ----         -------
     0   0 0 0      0.000000     -1.000000     -1.000000      2.000000

     1   1 0 0     -0.000000     -0.000000     -0.000000      0.000000
     1   0 1 0      0.000000      0.000000      0.000000      0.000000
     1   0 0 1      0.000000      0.000000      0.000000      0.000000

     2   2 0 0     -1.535841     -0.767921     -0.767921      0.000000
     2   1 1 0      0.000000      0.000000      0.000000      0.000000
     2   1 0 1      0.000000      0.000000      0.000000      0.000000
     2   0 2 0     -1.535841     -0.767921     -0.767921      0.000000
     2   0 1 1     -0.000000     -0.000000     -0.000000      0.000000
     2   0 0 2     -1.075130     -1.054442     -1.054442      1.033754


 Task  times  cpu:        0.1s     wall:        0.1s


                                NWChem Input Module
                                -------------------



                                NWChem NOFT Module
                                ------------------


                      Basis "ao basis" -> "ao basis" (spherical)
                      -----
  H (Hydrogen)
  ------------
            Exponent  Coefficients 
       -------------- ---------------------------------------------------------
  1 S  1.30100000E+01  0.163548
  1 S  1.96200000E+00  0.277418
  1 S  4.44600000E-01  0.315749

  2 S  1.22000000E-01  0.147123

  3 P  7.27000000E-01  0.956881



                         Geometry "geometry" -> "geometry"
                         ---------------------------------

 Output coordinates in angstroms (scale by  1.889725989 to convert to a.u.)

  No.       Tag          Charge          X              Y              Z
 ---- ---------------- ---------- -------------- -------------- --------------
    1 H                    1.0000     0.00000000     0.00000000     0.38044762
    2 H                    1.0000     0.00000000     0.00000000    -0.38044762

      Atomic Mass 
      ----------- 

      H                  1.007825


 Effective nuclear repulsion energy (a.u.)       0.6954666309

            Nuclear Dipole moment (a.u.) 
            ----------------------------
        X                 Y               Z
 ---------------- ---------------- ----------------
     0.0000000000     0.0000000000     0.0000000000



                                Z-matrix (autoz)
                                -------- 

 Units are Angstrom for bonds and degrees for angles

      Type          Name      I     J     K     L     M      Value
      ----------- --------  ----- ----- ----- ----- ----- ----------
    1 Stretch                  1     2                       0.76090

Vector filenames
================

Inputs:

orthogonal: ./h2_noft_dat.svecs
orbitals  : ./h2_noft_dat.mvecs
tilde     : ./h2_noft_dat.tvecs
movecs    : ./h2_noft_dat.movecs

Outputs:

orthogonal: ./h2_noft_dat.svecs
orbitals  : ./h2_noft_dat.mvecs
tilde     : ./h2_noft_dat.tvecs
movecs    : ./h2_noft_dat.movecs

 nwchem basis set
 ics=  1 ib=  0 nat=  1 shz=  1 gc=  0 ie=  3 lcf=  1 fcf=  0 type= 1
 ics=  2 ib=  3 nat=  1 shz=  1 gc=  0 ie=  4 lcf=  2 fcf=  1 type= 1
 ics=  3 ib=  4 nat=  1 shz=  3 gc=  0 ie=  5 lcf=  5 fcf=  2 type= 2
 ics=  4 ib=  5 nat=  2 shz=  1 gc=  0 ie=  8 lcf=  6 fcf=  5 type= 1
 ics=  5 ib=  8 nat=  2 shz=  1 gc=  0 ie=  9 lcf=  7 fcf=  6 type= 1
 ics=  6 ib=  9 nat=  2 shz=  3 gc=  0 ie= 10 lcf= 10 fcf=  7 type= 2
 texas basis set
 ics=  1 ib=  0 nat=  1 shz=  1 gc=  0 ie=  3 lcf=  1 fcf=  0 type= 1
 ics=  2 ib=  5 nat=  2 shz=  1 gc=  0 ie=  8 lcf=  2 fcf=  1 type= 1
 ics=  3 ib=  3 nat=  1 shz=  1 gc=  0 ie=  4 lcf=  3 fcf=  2 type= 1
 ics=  4 ib=  8 nat=  2 shz=  1 gc=  0 ie=  9 lcf=  4 fcf=  3 type= 1
 ics=  5 ib=  4 nat=  1 shz=  3 gc=  0 ie=  5 lcf=  7 fcf=  4 type= 2
 ics=  6 ib=  9 nat=  2 shz=  3 gc=  0 ie= 10 lcf= 10 fcf=  7 type= 2
 translation shell-nwchem -> shell-texas
                    1                    1
                    2                    3
                    3                    5
                    4                    2
                    5                    4
                    6                    6

 Read molecular orbitals from ./h2_noft_dat.movecs


 Read molecular orbitals from ./h2_noft_dat.movecs

  mo #   alpha occ   beta  occ
  ====   =========   =========
     1    1.000000    1.000000
     2    0.000000    0.000000
     3    0.000000    0.000000
     4    0.000000    0.000000
     5    0.000000    0.000000
     6    0.000000    0.000000
     7    0.000000    0.000000
     8    0.000000    0.000000
     9    0.000000    0.000000
    10    0.000000    0.000000

  dim1 dim2                    60                   10
  rlo rhi                     1                   60
  clo chi                     1                   10
  using                     1  nodes out of                     1

                                     alpha mos
                                     ---------

 Vector    1  Occ=1.000000D+00
              MO Center=  2.8D-17, -5.9D-17, -6.3D-16, r^2= 7.3D-01
   Bfn.  Coefficient  Atom+Function         Bfn.  Coefficient  Atom+Function  
  ----- ------------  ---------------      ----- ------------  ---------------
     1      0.401244  1 H  s                  6      0.401244  2 H  s          
     2      0.178633  1 H  s                  7      0.178633  2 H  s          
     5     -0.022215  1 H  pz                10      0.022215  2 H  pz         

 Vector    2  Occ=0.000000D+00
              MO Center=  7.9D-17,  4.3D-17,  1.8D-15, r^2= 2.7D+00
   Bfn.  Coefficient  Atom+Function         Bfn.  Coefficient  Atom+Function  
  ----- ------------  ---------------      ----- ------------  ---------------
     2      1.897303  1 H  s                  7     -1.897303  2 H  s          
     1      0.154109  1 H  s                  6     -0.154109  2 H  s          
     5     -0.013364  1 H  pz                10     -0.013364  2 H  pz         

 Vector    3  Occ=0.000000D+00
              MO Center= -1.3D-17,  3.8D-17,  2.3D-15, r^2= 2.3D+00
   Bfn.  Coefficient  Atom+Function         Bfn.  Coefficient  Atom+Function  
  ----- ------------  ---------------      ----- ------------  ---------------
     2     -0.727074  1 H  s                  7     -0.727074  2 H  s          
     1      0.706595  1 H  s                  6      0.706595  2 H  s          
     5     -0.015059  1 H  pz                10      0.015059  2 H  pz         

 Vector    4  Occ=0.000000D+00
              MO Center= -5.4D-17,  3.1D-17,  1.7D-15, r^2= 1.6D+00
   Bfn.  Coefficient  Atom+Function         Bfn.  Coefficient  Atom+Function  
  ----- ------------  ---------------      ----- ------------  ---------------
     2      1.604169  1 H  s                  7     -1.604169  2 H  s          
     1     -0.786588  1 H  s                  6      0.786588  2 H  s          
     5     -0.392184  1 H  pz                10     -0.392184  2 H  pz         

 Vector    5  Occ=0.000000D+00
              MO Center=  2.3D-17, -1.5D-17, -4.9D-16, r^2= 5.8D-01
   Bfn.  Coefficient  Atom+Function         Bfn.  Coefficient  Atom+Function  
  ----- ------------  ---------------      ----- ------------  ---------------
     3      0.486666  1 H  px                 8      0.486666  2 H  px         
     4     -0.320801  1 H  py                 9     -0.320801  2 H  py         

 Vector    6  Occ=0.000000D+00
              MO Center= -4.6D-17, -7.0D-17,  4.3D-16, r^2= 5.8D-01
   Bfn.  Coefficient  Atom+Function         Bfn.  Coefficient  Atom+Function  
  ----- ------------  ---------------      ----- ------------  ---------------
     4      0.486666  1 H  py                 9      0.486666  2 H  py         
     3      0.320801  1 H  px                 8      0.320801  2 H  px         

 Vector    7  Occ=0.000000D+00
              MO Center=  5.8D-17,  8.1D-17,  6.1D-16, r^2= 8.1D-01
   Bfn.  Coefficient  Atom+Function         Bfn.  Coefficient  Atom+Function  
  ----- ------------  ---------------      ----- ------------  ---------------
     5      0.714164  1 H  pz                10     -0.714164  2 H  pz         
     1      0.440130  1 H  s                  6      0.440130  2 H  s          
     2     -0.219308  1 H  s                  7     -0.219308  2 H  s          

 Vector    8  Occ=0.000000D+00
              MO Center= -4.6D-17,  4.1D-18, -7.8D-17, r^2= 7.6D-01
   Bfn.  Coefficient  Atom+Function         Bfn.  Coefficient  Atom+Function  
  ----- ------------  ---------------      ----- ------------  ---------------
     3      0.969028  1 H  px                 8     -0.969028  2 H  px         
     4     -0.085488  1 H  py                 9      0.085488  2 H  py         

 Vector    9  Occ=0.000000D+00
              MO Center=  4.7D-18,  5.4D-17, -9.4D-16, r^2= 7.6D-01
   Bfn.  Coefficient  Atom+Function         Bfn.  Coefficient  Atom+Function  
  ----- ------------  ---------------      ----- ------------  ---------------
     4      0.969028  1 H  py                 9     -0.969028  2 H  py         
     3      0.085488  1 H  px                 8     -0.085488  2 H  px         

 Vector   10  Occ=0.000000D+00
              MO Center= -6.4D-17, -3.2D-18, -3.3D-16, r^2= 7.0D-01
   Bfn.  Coefficient  Atom+Function         Bfn.  Coefficient  Atom+Function  
  ----- ------------  ---------------      ----- ------------  ---------------
     1      2.480029  1 H  s                  6     -2.480029  2 H  s          
     5     -1.968786  1 H  pz                10     -1.968786  2 H  pz         
     2      0.087792  1 H  s                  7     -0.087792  2 H  s          

  dim1 dim2                    60                   10
  rlo rhi                     1                   60
  clo chi                     1                   10
  using                     1  nodes out of                     1

                                     beta mos
                                     --------

 Vector    1  Occ=1.000000D+00
              MO Center=  2.8D-17, -5.9D-17, -6.3D-16, r^2= 7.3D-01
   Bfn.  Coefficient  Atom+Function         Bfn.  Coefficient  Atom+Function  
  ----- ------------  ---------------      ----- ------------  ---------------
     1      0.401244  1 H  s                  6      0.401244  2 H  s          
     2      0.178633  1 H  s                  7      0.178633  2 H  s          
     5     -0.022215  1 H  pz                10      0.022215  2 H  pz         

 Vector    2  Occ=0.000000D+00
              MO Center=  7.9D-17,  4.3D-17,  1.8D-15, r^2= 2.7D+00
   Bfn.  Coefficient  Atom+Function         Bfn.  Coefficient  Atom+Function  
  ----- ------------  ---------------      ----- ------------  ---------------
     2      1.897303  1 H  s                  7     -1.897303  2 H  s          
     1      0.154109  1 H  s                  6     -0.154109  2 H  s          
     5     -0.013364  1 H  pz                10     -0.013364  2 H  pz         

 Vector    3  Occ=0.000000D+00
              MO Center= -1.3D-17,  3.8D-17,  2.3D-15, r^2= 2.3D+00
   Bfn.  Coefficient  Atom+Function         Bfn.  Coefficient  Atom+Function  
  ----- ------------  ---------------      ----- ------------  ---------------
     2     -0.727074  1 H  s                  7     -0.727074  2 H  s          
     1      0.706595  1 H  s                  6      0.706595  2 H  s          
     5     -0.015059  1 H  pz                10      0.015059  2 H  pz         

 Vector    4  Occ=0.000000D+00
              MO Center= -5.4D-17,  3.1D-17,  1.7D-15, r^2= 1.6D+00
   Bfn.  Coefficient  Atom+Function         Bfn.  Coefficient  Atom+Function  
  ----- ------------  ---------------      ----- ------------  ---------------
     2      1.604169  1 H  s                  7     -1.604169  2 H  s          
     1     -0.786588  1 H  s                  6      0.786588  2 H  s          
     5     -0.392184  1 H  pz                10     -0.392184  2 H  pz         

 Vector    5  Occ=0.000000D+00
              MO Center=  2.3D-17, -1.5D-17, -4.9D-16, r^2= 5.8D-01
   Bfn.  Coefficient  Atom+Function         Bfn.  Coefficient  Atom+Function  
  ----- ------------  ---------------      ----- ------------  ---------------
     3      0.486666  1 H  px                 8      0.486666  2 H  px         
     4     -0.320801  1 H  py                 9     -0.320801  2 H  py         

 Vector    6  Occ=0.000000D+00
              MO Center= -4.6D-17, -7.0D-17,  4.3D-16, r^2= 5.8D-01
   Bfn.  Coefficient  Atom+Function         Bfn.  Coefficient  Atom+Function  
  ----- ------------  ---------------      ----- ------------  ---------------
     4      0.486666  1 H  py                 9      0.486666  2 H  py         
     3      0.320801  1 H  px                 8      0.320801  2 H  px         

 Vector    7  Occ=0.000000D+00
              MO Center=  5.8D-17,  8.1D-17,  6.1D-16, r^2= 8.1D-01
   Bfn.  Coefficient  Atom+Function         Bfn.  Coefficient  Atom+Function  
  ----- ------------  ---------------      ----- ------------  ---------------
     5      0.714164  1 H  pz                10     -0.714164  2 H  pz         
     1      0.440130  1 H  s                  6      0.440130  2 H  s          
     2     -0.219308  1 H  s                  7     -0.219308  2 H  s          

 Vector    8  Occ=0.000000D+00
              MO Center= -4.6D-17,  4.1D-18, -7.8D-17, r^2= 7.6D-01
   Bfn.  Coefficient  Atom+Function         Bfn.  Coefficient  Atom+Function  
  ----- ------------  ---------------      ----- ------------  ---------------
     3      0.969028  1 H  px                 8     -0.969028  2 H  px         
     4     -0.085488  1 H  py                 9      0.085488  2 H  py         

 Vector    9  Occ=0.000000D+00
              MO Center=  4.7D-18,  5.4D-17, -9.4D-16, r^2= 7.6D-01
   Bfn.  Coefficient  Atom+Function         Bfn.  Coefficient  Atom+Function  
  ----- ------------  ---------------      ----- ------------  ---------------
     4      0.969028  1 H  py                 9     -0.969028  2 H  py         
     3      0.085488  1 H  px                 8     -0.085488  2 H  px         

 Vector   10  Occ=0.000000D+00
              MO Center= -6.4D-17, -3.2D-18, -3.3D-16, r^2= 7.0D-01
   Bfn.  Coefficient  Atom+Function         Bfn.  Coefficient  Atom+Function  
  ----- ------------  ---------------      ----- ------------  ---------------
     1      2.480029  1 H  s                  6     -2.480029  2 H  s          
     5     -1.968786  1 H  pz                10     -1.968786  2 H  pz         
     2      0.087792  1 H  s                  7     -0.087792  2 H  s          


 global array: alpha tos[1:10,1:10],  handle: -994 

            1           2           3           4           5           6  
       ----------- ----------- ----------- ----------- ----------- -----------
   1       1.00000     0.00000     0.00000     0.00000     0.00000     0.00000
   2       0.00000     1.00000     0.00000     0.00000     0.00000     0.00000
   3       0.00000     0.00000     1.00000     0.00000     0.00000     0.00000
   4       0.00000     0.00000     0.00000     1.00000     0.00000     0.00000
   5       0.00000     0.00000     0.00000     0.00000     1.00000     0.00000
   6       0.00000     0.00000     0.00000     0.00000     0.00000     1.00000
   7       0.00000     0.00000     0.00000     0.00000     0.00000     0.00000
   8       0.00000     0.00000     0.00000     0.00000     0.00000     0.00000
   9       0.00000     0.00000     0.00000     0.00000     0.00000     0.00000
  10       0.00000     0.00000     0.00000     0.00000     0.00000     0.00000

            7           8           9          10  
       ----------- ----------- ----------- -----------
   1       0.00000     0.00000     0.00000     0.00000
   2       0.00000     0.00000     0.00000     0.00000
   3       0.00000     0.00000     0.00000     0.00000
   4       0.00000     0.00000     0.00000     0.00000
   5       0.00000     0.00000     0.00000     0.00000
   6       0.00000     0.00000     0.00000     0.00000
   7       1.00000     0.00000     0.00000     0.00000
   8       0.00000     1.00000     0.00000     0.00000
   9       0.00000     0.00000     1.00000     0.00000
  10       0.00000     0.00000     0.00000     1.00000

 global array: beta tos[1:10,1:10],  handle: -993 

            1           2           3           4           5           6  
       ----------- ----------- ----------- ----------- ----------- -----------
   1       1.00000     0.00000     0.00000     0.00000     0.00000     0.00000
   2       0.00000     1.00000     0.00000     0.00000     0.00000     0.00000
   3       0.00000     0.00000     1.00000     0.00000     0.00000     0.00000
   4       0.00000     0.00000     0.00000     1.00000     0.00000     0.00000
   5       0.00000     0.00000     0.00000     0.00000     1.00000     0.00000
   6       0.00000     0.00000     0.00000     0.00000     0.00000     1.00000
   7       0.00000     0.00000     0.00000     0.00000     0.00000     0.00000
   8       0.00000     0.00000     0.00000     0.00000     0.00000     0.00000
   9       0.00000     0.00000     0.00000     0.00000     0.00000     0.00000
  10       0.00000     0.00000     0.00000     0.00000     0.00000     0.00000

            7           8           9          10  
       ----------- ----------- ----------- -----------
   1       0.00000     0.00000     0.00000     0.00000
   2       0.00000     0.00000     0.00000     0.00000
   3       0.00000     0.00000     0.00000     0.00000
   4       0.00000     0.00000     0.00000     0.00000
   5       0.00000     0.00000     0.00000     0.00000
   6       0.00000     0.00000     0.00000     0.00000
   7       1.00000     0.00000     0.00000     0.00000
   8       0.00000     1.00000     0.00000     0.00000
   9       0.00000     0.00000     1.00000     0.00000
  10       0.00000     0.00000     0.00000     1.00000

 global array: alpha mos[1:10,1:10],  handle: -996 

            1           2           3           4           5           6  
       ----------- ----------- ----------- ----------- ----------- -----------
   1      -0.00000     0.02446    -0.00000    -0.13954    -0.00000    -0.00000
   2       0.00000    -0.73191     0.00000    -0.67700    -0.00000    -0.00000
   3      -0.16018    -0.00000    -0.79153     0.00000     0.00000    -0.00000
   4       0.00000    -0.00000    -0.00000     0.00000     0.00000     0.00000
   5      -0.00000    -0.00000    -0.00000     0.00000     0.00000     0.00000
   6      -0.00000    -0.68096     0.00000     0.72264    -0.00000    -0.00000
   7      -0.02205     0.00000     0.60020    -0.00000    -0.00000     0.00000
   8       0.00000    -0.00000     0.00000     0.00000     0.73861    -0.67413
   9       0.00000     0.00000     0.00000    -0.00000    -0.67413    -0.73861
  10      -0.98684    -0.00000     0.11507     0.00000    -0.00000     0.00000

            7           8           9          10  
       ----------- ----------- ----------- -----------
   1      -0.00000    -0.00000    -0.00000     0.98991
   2       0.00000    -0.00000    -0.00000    -0.07734
   3      -0.58976    -0.00000    -0.00000     0.00000
   4      -0.00000    -0.53803     0.84293    -0.00000
   5       0.00000    -0.84293    -0.53803    -0.00000
   6      -0.00000     0.00000     0.00000     0.11869
   7      -0.79955    -0.00000    -0.00000    -0.00000
   8       0.00000     0.00000     0.00000     0.00000
   9       0.00000    -0.00000     0.00000    -0.00000
  10       0.11359     0.00000     0.00000    -0.00000

 global array: beta mos[1:10,1:10],  handle: -995 

            1           2           3           4           5           6  
       ----------- ----------- ----------- ----------- ----------- -----------
   1      -0.00000     0.02446    -0.00000    -0.13954    -0.00000    -0.00000
   2       0.00000    -0.73191     0.00000    -0.67700    -0.00000    -0.00000
   3      -0.16018    -0.00000    -0.79153     0.00000     0.00000    -0.00000
   4       0.00000    -0.00000    -0.00000     0.00000     0.00000     0.00000
   5      -0.00000    -0.00000    -0.00000     0.00000     0.00000     0.00000
   6      -0.00000    -0.68096     0.00000     0.72264    -0.00000    -0.00000
   7      -0.02205     0.00000     0.60020    -0.00000    -0.00000     0.00000
   8       0.00000    -0.00000     0.00000     0.00000     0.73861    -0.67413
   9       0.00000     0.00000     0.00000    -0.00000    -0.67413    -0.73861
  10      -0.98684    -0.00000     0.11507     0.00000    -0.00000     0.00000

            7           8           9          10  
       ----------- ----------- ----------- -----------
   1      -0.00000    -0.00000    -0.00000     0.98991
   2       0.00000    -0.00000    -0.00000    -0.07734
   3      -0.58976    -0.00000    -0.00000     0.00000
   4      -0.00000    -0.53803     0.84293    -0.00000
   5       0.00000    -0.84293    -0.53803    -0.00000
   6      -0.00000     0.00000     0.00000     0.11869
   7      -0.79955    -0.00000    -0.00000    -0.00000
   8       0.00000     0.00000     0.00000     0.00000
   9       0.00000    -0.00000     0.00000    -0.00000
  10       0.11359     0.00000     0.00000    -0.00000

 global array: orthog[1:10,1:10],  handle: -997 

            1           2           3           4           5           6  
       ----------- ----------- ----------- ----------- ----------- -----------
   1       2.56855     0.22791    -0.88314    -0.00000    -0.00000    -0.37900
   2      -0.09053    -2.48146     0.67623     0.00000     0.00000    -0.12234
   3      -0.00000    -0.00000     0.00000    -0.44930    -0.86282    -0.00000
   4      -0.00000    -0.00000    -0.00000     0.86282    -0.44930     0.00000
   5      -1.89453     0.42756    -0.40571    -0.00000    -0.00000    -0.50799
   6      -2.56855    -0.22791    -0.88314    -0.00000     0.00000     0.37900
   7       0.09053     2.48146     0.67623     0.00000    -0.00000     0.12234
   8       0.00000     0.00000    -0.00000     0.44930     0.86282    -0.00000
   9       0.00000     0.00000     0.00000    -0.86282     0.44930     0.00000
  10      -1.89453     0.42756     0.40571     0.00000    -0.00000    -0.50799

            7           8           9          10  
       ----------- ----------- ----------- -----------
   1       0.06335    -0.00000     0.00000    -0.26466
   2      -0.26498    -0.00000     0.00000    -0.28486
   3       0.00000     0.14320    -0.56502    -0.00000
   4       0.00000    -0.56502    -0.14320     0.00000
   5      -0.57956    -0.00000     0.00000     0.10131
   6       0.06335     0.00000    -0.00000    -0.26466
   7      -0.26498    -0.00000    -0.00000    -0.28486
   8       0.00000     0.14320    -0.56502    -0.00000
   9       0.00000    -0.56502    -0.14320     0.00000
  10       0.57956     0.00000     0.00000    -0.10131
         3      -1.13167564       0.6955      -2.4706       0.6498       0.0000      -0.0064       0.0000
         6      -1.13498087       0.6955      -2.4668       0.6490       0.0000      -0.0126       0.0000
        11      -1.13580119       0.6955      -2.4661       0.6489       0.0000      -0.0141       0.0000
        18      -1.14183251       0.6955      -2.4616       0.6489       0.0000      -0.0246       0.0000
        27      -1.14637473       0.6955      -2.4576       0.6489       0.0000      -0.0332       0.0000
       100      -1.14638722       0.6955      -2.4592       0.6505       0.0000      -0.0332       0.0000
       103      -1.14865982       0.6955      -2.4589       0.6506       0.0000      -0.0358       0.0000
       106      -1.14866051       0.6955      -2.4589       0.6506       0.0000      -0.0358       0.0000
       109      -1.15105152       0.6955      -2.4585       0.6519       0.0000      -0.0399       0.0000
       112      -1.15108476       0.6955      -2.4585       0.6518       0.0000      -0.0399       0.0000
       133      -1.15109884       0.6955      -2.4581       0.6515       0.0000      -0.0399       0.0000
       136      -1.15109895       0.6955      -2.4581       0.6515       0.0000      -0.0399       0.0000
       139      -1.15233878       0.6955      -2.4579       0.6516       0.0000      -0.0415       0.0000
       142      -1.15234296       0.6955      -2.4579       0.6516       0.0000      -0.0415       0.0000
       157      -1.15236131       0.6955      -2.4579       0.6516       0.0000      -0.0415       0.0000
       160      -1.15236153       0.6955      -2.4579       0.6516       0.0000      -0.0415       0.0000
       173      -1.15237157       0.6955      -2.4579       0.6516       0.0000      -0.0416       0.0000
       176      -1.15238146       0.6955      -2.4579       0.6516       0.0000      -0.0416       0.0000
       183      -1.15238146       0.6955      -2.4579       0.6516       0.0000      -0.0416       0.0000
       186      -1.15273178       0.6955      -2.4579       0.6518       0.0000      -0.0421       0.0000
       189      -1.15273733       0.6955      -2.4579       0.6518       0.0000      -0.0421       0.0000
       192      -1.15274806       0.6955      -2.4579       0.6518       0.0000      -0.0421       0.0000
       205      -1.15504200       0.6955      -2.4457       0.6515       0.0000      -0.0563       0.0000
       208      -1.15565132       0.6955      -2.4388       0.6497       0.0000      -0.0620       0.0000
       213      -1.15674540       0.6955      -2.4394       0.6498       0.0000      -0.0626       0.0000
       220      -1.15689771       0.6955      -2.4411       0.6498       0.0000      -0.0611       0.0000
       229      -1.15697509       0.6955      -2.4422       0.6498       0.0000      -0.0601       0.0000
       300      -1.15699617       0.6955      -2.4429       0.6506       0.0000      -0.0602       0.0000
       303      -1.15699623       0.6955      -2.4428       0.6505       0.0000      -0.0602       0.0000
       306      -1.15817917       0.6955      -2.4434       0.6506       0.0000      -0.0608       0.0000
       309      -1.15828351       0.6955      -2.4462       0.6534       0.0000      -0.0610       0.0000
       312      -1.15834608       0.6955      -2.4465       0.6532       0.0000      -0.0606       0.0000
       315      -1.16087884       0.6955      -2.4471       0.6540       0.0000      -0.0632       0.0000
       335      -1.16088032       0.6955      -2.4471       0.6540       0.0000      -0.0632       0.0000
       338      -1.16088141       0.6955      -2.4471       0.6539       0.0000      -0.0632       0.0000
       341      -1.16154661       0.6955      -2.4474       0.6540       0.0000      -0.0636       0.0000
       344      -1.16161508       0.6955      -2.4472       0.6541       0.0000      -0.0640       0.0000
       347      -1.16161574       0.6955      -2.4472       0.6541       0.0000      -0.0640       0.0000
       362      -1.16161574       0.6955      -2.4472       0.6541       0.0000      -0.0640       0.0000
       365      -1.16161795       0.6955      -2.4472       0.6541       0.0000      -0.0640       0.0000
       378      -1.16161840       0.6955      -2.4472       0.6541       0.0000      -0.0640       0.0000
       381      -1.16161997       0.6955      -2.4472       0.6541       0.0000      -0.0640       0.0000
       388      -1.16162036       0.6955      -2.4472       0.6541       0.0000      -0.0640       0.0000
       391      -1.16172417       0.6955      -2.4474       0.6540       0.0000      -0.0638       0.0000
       394      -1.16213228       0.6955      -2.4473       0.6540       0.0000      -0.0643       0.0000
       397      -1.16215734       0.6955      -2.4473       0.6540       0.0000      -0.0643       0.0000
       410      -1.16248362       0.6955      -2.4419       0.6538       0.0000      -0.0699       0.0000
       413      -1.16248790       0.6955      -2.4425       0.6539       0.0000      -0.0694       0.0000
       418      -1.16259722       0.6955      -2.4425       0.6539       0.0000      -0.0695       0.0000
       425      -1.16259760       0.6955      -2.4425       0.6539       0.0000      -0.0695       0.0000
       504      -1.16260276       0.6955      -2.4422       0.6537       0.0000      -0.0695       0.0000
       507      -1.16260606       0.6955      -2.4430       0.6544       0.0000      -0.0695       0.0000
       510      -1.16272764       0.6955      -2.4433       0.6545       0.0000      -0.0694       0.0000
       513      -1.16273161       0.6955      -2.4431       0.6544       0.0000      -0.0694       0.0000
       516      -1.16282491       0.6955      -2.4434       0.6542       0.0000      -0.0691       0.0000
       519      -1.16287134       0.6955      -2.4435       0.6543       0.0000      -0.0691       0.0000
       539      -1.16287140       0.6955      -2.4435       0.6543       0.0000      -0.0691       0.0000
       542      -1.16287368       0.6955      -2.4435       0.6542       0.0000      -0.0691       0.0000
       545      -1.16287862       0.6955      -2.4435       0.6542       0.0000      -0.0691       0.0000
       548      -1.16288375       0.6955      -2.4435       0.6542       0.0000      -0.0691       0.0000
       551      -1.16288375       0.6955      -2.4435       0.6542       0.0000      -0.0691       0.0000
       554      -1.16288375       0.6955      -2.4435       0.6542       0.0000      -0.0691       0.0000
       567      -1.16288503       0.6955      -2.4435       0.6542       0.0000      -0.0691       0.0000
       570      -1.16288503       0.6955      -2.4435       0.6542       0.0000      -0.0691       0.0000
       583      -1.16288621       0.6955      -2.4435       0.6542       0.0000      -0.0691       0.0000
       586      -1.16288631       0.6955      -2.4435       0.6542       0.0000      -0.0691       0.0000
       593      -1.16289200       0.6955      -2.4435       0.6542       0.0000      -0.0691       0.0000
       596      -1.16314199       0.6955      -2.4439       0.6538       0.0000      -0.0685       0.0000
       599      -1.16318013       0.6955      -2.4439       0.6538       0.0000      -0.0686       0.0000
       614      -1.16321711       0.6955      -2.4408       0.6537       0.0000      -0.0716       0.0000
       617      -1.16331219       0.6955      -2.4438       0.6542       0.0000      -0.0692       0.0000
       628      -1.16331222       0.6955      -2.4438       0.6542       0.0000      -0.0692       0.0000
       707      -1.16331273       0.6955      -2.4438       0.6542       0.0000      -0.0692       0.0000
       710      -1.16331285       0.6955      -2.4436       0.6540       0.0000      -0.0692       0.0000
       713      -1.16333362       0.6955      -2.4438       0.6540       0.0000      -0.0691       0.0000
       716      -1.16334012       0.6955      -2.4436       0.6539       0.0000      -0.0691       0.0000
       719      -1.16340736       0.6955      -2.4439       0.6538       0.0000      -0.0687       0.0000
       722      -1.16342540       0.6955      -2.4440       0.6538       0.0000      -0.0687       0.0000
       725      -1.16342540       0.6955      -2.4440       0.6538       0.0000      -0.0687       0.0000
       744      -1.16342605       0.6955      -2.4440       0.6538       0.0000      -0.0687       0.0000
       747      -1.16342643       0.6955      -2.4440       0.6538       0.0000      -0.0687       0.0000
       750      -1.16342687       0.6955      -2.4440       0.6538       0.0000      -0.0687       0.0000
       753      -1.16342687       0.6955      -2.4440       0.6538       0.0000      -0.0687       0.0000
       756      -1.16342687       0.6955      -2.4440       0.6538       0.0000      -0.0687       0.0000
       769      -1.16342723       0.6955      -2.4440       0.6538       0.0000      -0.0687       0.0000
       772      -1.16342737       0.6955      -2.4440       0.6538       0.0000      -0.0687       0.0000
       785      -1.16342751       0.6955      -2.4440       0.6538       0.0000      -0.0687       0.0000
       788      -1.16342763       0.6955      -2.4440       0.6538       0.0000      -0.0687       0.0000
       795      -1.16343003       0.6955      -2.4440       0.6538       0.0000      -0.0687       0.0000
       798      -1.16347273       0.6955      -2.4441       0.6536       0.0000      -0.0684       0.0000
       801      -1.16348387       0.6955      -2.4441       0.6536       0.0000      -0.0684       0.0000
       804      -1.16348387       0.6955      -2.4441       0.6536       0.0000      -0.0684       0.0000
       817      -1.16348912       0.6955      -2.4416       0.6534       0.0000      -0.0708       0.0000
       820      -1.16349027       0.6955      -2.4419       0.6535       0.0000      -0.0705       0.0000
       825      -1.16358914       0.6955      -2.4419       0.6535       0.0000      -0.0706       0.0000
       832      -1.16358946       0.6955      -2.4419       0.6535       0.0000      -0.0706       0.0000
       911      -1.16359024       0.6955      -2.4418       0.6534       0.0000      -0.0706       0.0000
       914      -1.16359029       0.6955      -2.4418       0.6533       0.0000      -0.0706       0.0000
       917      -1.16359045       0.6955      -2.4418       0.6533       0.0000      -0.0706       0.0000
       920      -1.16359260       0.6955      -2.4417       0.6533       0.0000      -0.0706       0.0000
       923      -1.16361058       0.6955      -2.4419       0.6532       0.0000      -0.0704       0.0000
       926      -1.16361234       0.6955      -2.4419       0.6532       0.0000      -0.0704       0.0000
       929      -1.16361234       0.6955      -2.4419       0.6532       0.0000      -0.0704       0.0000
       942      -1.16361234       0.6955      -2.4419       0.6532       0.0000      -0.0704       0.0000
       949      -1.16361252       0.6955      -2.4418       0.6532       0.0000      -0.0704       0.0000
       952      -1.16361266       0.6955      -2.4418       0.6532       0.0000      -0.0704       0.0000
       955      -1.16361343       0.6955      -2.4419       0.6532       0.0000      -0.0704       0.0000
       958      -1.16361343       0.6955      -2.4419       0.6532       0.0000      -0.0704       0.0000
       973      -1.16361344       0.6955      -2.4419       0.6532       0.0000      -0.0704       0.0000
       976      -1.16361349       0.6955      -2.4419       0.6532       0.0000      -0.0704       0.0000
       989      -1.16361349       0.6955      -2.4419       0.6532       0.0000      -0.0704       0.0000
       992      -1.16361351       0.6955      -2.4419       0.6532       0.0000      -0.0704       0.0000
       999      -1.16361473       0.6955      -2.4419       0.6532       0.0000      -0.0704       0.0000
      1002      -1.16363207       0.6955      -2.4420       0.6531       0.0000      -0.0702       0.0000
      1005      -1.16363401       0.6955      -2.4420       0.6531       0.0000      -0.0702       0.0000
      1008      -1.16363401       0.6955      -2.4420       0.6531       0.0000      -0.0702       0.0000
      1111      -1.16363447       0.6955      -2.4419       0.6530       0.0000      -0.0702       0.0000
      1114      -1.16363457       0.6955      -2.4418       0.6529       0.0000      -0.0702       0.0000
      1117      -1.16363572       0.6955      -2.4417       0.6529       0.0000      -0.0702       0.0000
      1120      -1.16363663       0.6955      -2.4417       0.6528       0.0000      -0.0702       0.0000
      1123      -1.16364338       0.6955      -2.4418       0.6528       0.0000      -0.0701       0.0000
      1126      -1.16364341       0.6955      -2.4418       0.6528       0.0000      -0.0701       0.0000
      1147      -1.16364344       0.6955      -2.4418       0.6528       0.0000      -0.0701       0.0000
      1150      -1.16364344       0.6955      -2.4418       0.6528       0.0000      -0.0701       0.0000
      1153      -1.16364450       0.6955      -2.4418       0.6528       0.0000      -0.0701       0.0000
      1156      -1.16364450       0.6955      -2.4418       0.6528       0.0000      -0.0701       0.0000
      1171      -1.16364450       0.6955      -2.4418       0.6528       0.0000      -0.0701       0.0000
      1174      -1.16364451       0.6955      -2.4418       0.6528       0.0000      -0.0701       0.0000
      1187      -1.16364451       0.6955      -2.4418       0.6528       0.0000      -0.0701       0.0000
      1190      -1.16364451       0.6955      -2.4418       0.6528       0.0000      -0.0701       0.0000
      1197      -1.16364499       0.6955      -2.4418       0.6528       0.0000      -0.0701       0.0000
      1200      -1.16364777       0.6955      -2.4418       0.6527       0.0000      -0.0700       0.0000
      1203      -1.16364807       0.6955      -2.4418       0.6527       0.0000      -0.0700       0.0000
      1206      -1.16364807       0.6955      -2.4418       0.6527       0.0000      -0.0700       0.0000
      1309      -1.16364831       0.6955      -2.4418       0.6527       0.0000      -0.0700       0.0000
      1312      -1.16364836       0.6955      -2.4417       0.6526       0.0000      -0.0700       0.0000
      1315      -1.16365020       0.6955      -2.4417       0.6526       0.0000      -0.0700       0.0000
      1318      -1.16365047       0.6955      -2.4416       0.6526       0.0000      -0.0700       0.0000
      1321      -1.16365282       0.6955      -2.4417       0.6525       0.0000      -0.0700       0.0000
      1324      -1.16365329       0.6955      -2.4417       0.6525       0.0000      -0.0700       0.0000
      1345      -1.16365331       0.6955      -2.4417       0.6525       0.0000      -0.0700       0.0000
      1348      -1.16365335       0.6955      -2.4417       0.6525       0.0000      -0.0700       0.0000
      1351      -1.16365351       0.6955      -2.4417       0.6525       0.0000      -0.0700       0.0000
      1354      -1.16365351       0.6955      -2.4417       0.6525       0.0000      -0.0700       0.0000
      1369      -1.16365352       0.6955      -2.4417       0.6525       0.0000      -0.0700       0.0000
      1372      -1.16365353       0.6955      -2.4417       0.6525       0.0000      -0.0700       0.0000
      1385      -1.16365353       0.6955      -2.4417       0.6525       0.0000      -0.0700       0.0000
      1388      -1.16365354       0.6955      -2.4417       0.6525       0.0000      -0.0700       0.0000
      1395      -1.16365373       0.6955      -2.4417       0.6525       0.0000      -0.0700       0.0000
      1398      -1.16365440       0.6955      -2.4417       0.6525       0.0000      -0.0699       0.0000
      1401      -1.16365447       0.6955      -2.4417       0.6525       0.0000      -0.0699       0.0000
      1404      -1.16365447       0.6955      -2.4417       0.6525       0.0000      -0.0699       0.0000
      1507      -1.16365458       0.6955      -2.4417       0.6525       0.0000      -0.0699       0.0000
      1510      -1.16365461       0.6955      -2.4416       0.6524       0.0000      -0.0699       0.0000
      1513      -1.16365612       0.6955      -2.4416       0.6524       0.0000      -0.0699       0.0000
      1516      -1.16365622       0.6955      -2.4415       0.6524       0.0000      -0.0699       0.0000
      1519      -1.16365732       0.6955      -2.4416       0.6524       0.0000      -0.0699       0.0000
      1522      -1.16365777       0.6955      -2.4416       0.6524       0.0000      -0.0699       0.0000
      1543      -1.16365778       0.6955      -2.4416       0.6524       0.0000      -0.0699       0.0000
      1546      -1.16365781       0.6955      -2.4416       0.6524       0.0000      -0.0699       0.0000
      1549      -1.16365785       0.6955      -2.4416       0.6524       0.0000      -0.0699       0.0000
      1552      -1.16365785       0.6955      -2.4416       0.6524       0.0000      -0.0699       0.0000
      1567      -1.16365785       0.6955      -2.4416       0.6524       0.0000      -0.0699       0.0000
      1570      -1.16365786       0.6955      -2.4416       0.6524       0.0000      -0.0699       0.0000
      1583      -1.16365786       0.6955      -2.4416       0.6524       0.0000      -0.0699       0.0000
      1586      -1.16365787       0.6955      -2.4416       0.6524       0.0000      -0.0699       0.0000
      1593      -1.16365796       0.6955      -2.4416       0.6524       0.0000      -0.0699       0.0000
      1596      -1.16365818       0.6955      -2.4416       0.6523       0.0000      -0.0699       0.0000
      1599      -1.16365821       0.6955      -2.4416       0.6523       0.0000      -0.0699       0.0000
      1602      -1.16365821       0.6955      -2.4416       0.6523       0.0000      -0.0699       0.0000
      1705      -1.16365827       0.6955      -2.4416       0.6523       0.0000      -0.0699       0.0000
      1708      -1.16365828       0.6955      -2.4415       0.6523       0.0000      -0.0699       0.0000
      1711      -1.16365923       0.6955      -2.4415       0.6523       0.0000      -0.0699       0.0000
      1714      -1.16365927       0.6955      -2.4415       0.6522       0.0000      -0.0699       0.0000
      1717      -1.16365984       0.6955      -2.4415       0.6522       0.0000      -0.0699       0.0000
      1720      -1.16366009       0.6955      -2.4415       0.6522       0.0000      -0.0699       0.0000
      1741      -1.16366010       0.6955      -2.4415       0.6522       0.0000      -0.0699       0.0000
      1744      -1.16366012       0.6955      -2.4415       0.6522       0.0000      -0.0699       0.0000
      1747      -1.16366013       0.6955      -2.4415       0.6522       0.0000      -0.0699       0.0000
      1750      -1.16366013       0.6955      -2.4415       0.6522       0.0000      -0.0699       0.0000
      1765      -1.16366013       0.6955      -2.4415       0.6522       0.0000      -0.0699       0.0000
      1768      -1.16366014       0.6955      -2.4415       0.6522       0.0000      -0.0699       0.0000
      1781      -1.16366014       0.6955      -2.4415       0.6522       0.0000      -0.0699       0.0000
      1784      -1.16366014       0.6955      -2.4415       0.6522       0.0000      -0.0699       0.0000
      1791      -1.16366018       0.6955      -2.4415       0.6522       0.0000      -0.0699       0.0000
      1794      -1.16366029       0.6955      -2.4415       0.6522       0.0000      -0.0699       0.0000
      1797      -1.16366030       0.6955      -2.4415       0.6522       0.0000      -0.0699       0.0000
      1800      -1.16366030       0.6955      -2.4415       0.6522       0.0000      -0.0699       0.0000
      1903      -1.16366033       0.6955      -2.4415       0.6522       0.0000      -0.0699       0.0000
      1906      -1.16366034       0.6955      -2.4414       0.6522       0.0000      -0.0699       0.0000
      1909      -1.16366084       0.6955      -2.4414       0.6522       0.0000      -0.0699       0.0000
      1912      -1.16366086       0.6955      -2.4414       0.6521       0.0000      -0.0699       0.0000
      1915      -1.16366116       0.6955      -2.4414       0.6521       0.0000      -0.0699       0.0000
      1918      -1.16366128       0.6955      -2.4414       0.6521       0.0000      -0.0699       0.0000
      1921      -1.16366128       0.6955      -2.4414       0.6521       0.0000      -0.0699       0.0000
      1940      -1.16366129       0.6955      -2.4414       0.6521       0.0000      -0.0699       0.0000
      1943      -1.16366129       0.6955      -2.4414       0.6521       0.0000      -0.0699       0.0000
      1946      -1.16366130       0.6955      -2.4414       0.6521       0.0000      -0.0699       0.0000
      1949      -1.16366130       0.6955      -2.4414       0.6521       0.0000      -0.0699       0.0000
      1964      -1.16366130       0.6955      -2.4414       0.6521       0.0000      -0.0699       0.0000
      1967      -1.16366130       0.6955      -2.4414       0.6521       0.0000      -0.0699       0.0000
      1980      -1.16366130       0.6955      -2.4414       0.6521       0.0000      -0.0699       0.0000
      1983      -1.16366131       0.6955      -2.4414       0.6521       0.0000      -0.0699       0.0000
      1990      -1.16366132       0.6955      -2.4414       0.6521       0.0000      -0.0699       0.0000
      1993      -1.16366138       0.6955      -2.4414       0.6521       0.0000      -0.0698       0.0000
      1996      -1.16366138       0.6955      -2.4414       0.6521       0.0000      -0.0698       0.0000
      1999      -1.16366138       0.6955      -2.4414       0.6521       0.0000      -0.0698       0.0000
      2102      -1.16366140       0.6955      -2.4414       0.6521       0.0000      -0.0698       0.0000
      2105      -1.16366140       0.6955      -2.4414       0.6521       0.0000      -0.0698       0.0000
      2108      -1.16366165       0.6955      -2.4414       0.6521       0.0000      -0.0699       0.0000
      2111      -1.16366166       0.6955      -2.4414       0.6521       0.0000      -0.0699       0.0000
      2114      -1.16366181       0.6955      -2.4414       0.6521       0.0000      -0.0698       0.0000
      2117      -1.16366187       0.6955      -2.4414       0.6521       0.0000      -0.0698       0.0000
      2138      -1.16366187       0.6955      -2.4414       0.6521       0.0000      -0.0698       0.0000
      2141      -1.16366187       0.6955      -2.4414       0.6521       0.0000      -0.0698       0.0000
      2144      -1.16366188       0.6955      -2.4414       0.6521       0.0000      -0.0698       0.0000
      2147      -1.16366188       0.6955      -2.4414       0.6521       0.0000      -0.0698       0.0000
      2162      -1.16366188       0.6955      -2.4414       0.6521       0.0000      -0.0698       0.0000
      2165      -1.16366188       0.6955      -2.4414       0.6521       0.0000      -0.0698       0.0000
      2178      -1.16366188       0.6955      -2.4414       0.6521       0.0000      -0.0698       0.0000
      2181      -1.16366188       0.6955      -2.4414       0.6521       0.0000      -0.0698       0.0000
      2188      -1.16366189       0.6955      -2.4414       0.6521       0.0000      -0.0698       0.0000
      2191      -1.16366191       0.6955      -2.4414       0.6521       0.0000      -0.0698       0.0000
      2194      -1.16366192       0.6955      -2.4414       0.6521       0.0000      -0.0698       0.0000
      2197      -1.16366192       0.6955      -2.4414       0.6521       0.0000      -0.0698       0.0000
      2300      -1.16366193       0.6955      -2.4414       0.6521       0.0000      -0.0698       0.0000
      2303      -1.16366193       0.6955      -2.4413       0.6520       0.0000      -0.0698       0.0000
      2306      -1.16366205       0.6955      -2.4413       0.6520       0.0000      -0.0698       0.0000
      2309      -1.16366205       0.6955      -2.4413       0.6520       0.0000      -0.0698       0.0000
      2312      -1.16366213       0.6955      -2.4413       0.6520       0.0000      -0.0698       0.0000
      2315      -1.16366215       0.6955      -2.4413       0.6520       0.0000      -0.0698       0.0000
      2336      -1.16366215       0.6955      -2.4413       0.6520       0.0000      -0.0698       0.0000
      2339      -1.16366216       0.6955      -2.4413       0.6520       0.0000      -0.0698       0.0000
      2342      -1.16366216       0.6955      -2.4413       0.6520       0.0000      -0.0698       0.0000
      2345      -1.16366216       0.6955      -2.4413       0.6520       0.0000      -0.0698       0.0000
      2360      -1.16366216       0.6955      -2.4413       0.6520       0.0000      -0.0698       0.0000
      2363      -1.16366216       0.6955      -2.4413       0.6520       0.0000      -0.0698       0.0000
      2368      -1.16366216       0.6955      -2.4413       0.6520       0.0000      -0.0698       0.0000
      2377      -1.16366216       0.6955      -2.4413       0.6520       0.0000      -0.0698       0.0000
      2380      -1.16366216       0.6955      -2.4413       0.6520       0.0000      -0.0698       0.0000
      2387      -1.16366216       0.6955      -2.4413       0.6520       0.0000      -0.0698       0.0000
      2390      -1.16366217       0.6955      -2.4413       0.6520       0.0000      -0.0698       0.0000
      2393      -1.16366218       0.6955      -2.4413       0.6520       0.0000      -0.0698       0.0000
      2396      -1.16366218       0.6955      -2.4413       0.6520       0.0000      -0.0698       0.0000
      2499      -1.16366218       0.6955      -2.4413       0.6520       0.0000      -0.0698       0.0000
      2502      -1.16366218       0.6955      -2.4413       0.6520       0.0000      -0.0698       0.0000
      2505      -1.16366224       0.6955      -2.4413       0.6520       0.0000      -0.0698       0.0000
      2508      -1.16366224       0.6955      -2.4413       0.6520       0.0000      -0.0698       0.0000
      2511      -1.16366228       0.6955      -2.4413       0.6520       0.0000      -0.0698       0.0000
      2514      -1.16366229       0.6955      -2.4413       0.6520       0.0000      -0.0698       0.0000
      2535      -1.16366229       0.6955      -2.4413       0.6520       0.0000      -0.0698       0.0000
      2538      -1.16366229       0.6955      -2.4413       0.6520       0.0000      -0.0698       0.0000
      2541      -1.16366229       0.6955      -2.4413       0.6520       0.0000      -0.0698       0.0000
      2558      -1.16366229       0.6955      -2.4413       0.6520       0.0000      -0.0698       0.0000
      2561      -1.16366229       0.6955      -2.4413       0.6520       0.0000      -0.0698       0.0000
      2574      -1.16366229       0.6955      -2.4413       0.6520       0.0000      -0.0698       0.0000
      2577      -1.16366229       0.6955      -2.4413       0.6520       0.0000      -0.0698       0.0000
      2584      -1.16366229       0.6955      -2.4413       0.6520       0.0000      -0.0698       0.0000
      2587      -1.16366230       0.6955      -2.4413       0.6520       0.0000      -0.0698       0.0000
      2590      -1.16366230       0.6955      -2.4413       0.6520       0.0000      -0.0698       0.0000
      2593      -1.16366230       0.6955      -2.4413       0.6520       0.0000      -0.0698       0.0000
      2696      -1.16366230       0.6955      -2.4413       0.6520       0.0000      -0.0698       0.0000
      2699      -1.16366230       0.6955      -2.4413       0.6520       0.0000      -0.0698       0.0000
      2702      -1.16366233       0.6955      -2.4413       0.6520       0.0000      -0.0698       0.0000
      2705      -1.16366233       0.6955      -2.4413       0.6520       0.0000      -0.0698       0.0000
      2708      -1.16366235       0.6955      -2.4413       0.6520       0.0000      -0.0698       0.0000
      2711      -1.16366235       0.6955      -2.4413       0.6520       0.0000      -0.0698       0.0000
      2732      -1.16366235       0.6955      -2.4413       0.6520       0.0000      -0.0698       0.0000
      2735      -1.16366235       0.6955      -2.4413       0.6520       0.0000      -0.0698       0.0000
      2738      -1.16366235       0.6955      -2.4413       0.6520       0.0000      -0.0698       0.0000
      2741      -1.16366235       0.6955      -2.4413       0.6520       0.0000      -0.0698       0.0000
      2756      -1.16366235       0.6955      -2.4413       0.6520       0.0000      -0.0698       0.0000
      2759      -1.16366235       0.6955      -2.4413       0.6520       0.0000      -0.0698       0.0000
      2772      -1.16366235       0.6955      -2.4413       0.6520       0.0000      -0.0698       0.0000
      2775      -1.16366235       0.6955      -2.4413       0.6520       0.0000      -0.0698       0.0000
      2782      -1.16366235       0.6955      -2.4413       0.6520       0.0000      -0.0698       0.0000
      2785      -1.16366236       0.6955      -2.4413       0.6520       0.0000      -0.0698       0.0000
      2788      -1.16366236       0.6955      -2.4413       0.6520       0.0000      -0.0698       0.0000
      2791      -1.16366236       0.6955      -2.4413       0.6520       0.0000      -0.0698       0.0000
      2894      -1.16366236       0.6955      -2.4413       0.6520       0.0000      -0.0698       0.0000
      2897      -1.16366236       0.6955      -2.4413       0.6520       0.0000      -0.0698       0.0000
      2900      -1.16366237       0.6955      -2.4413       0.6520       0.0000      -0.0698       0.0000
      2903      -1.16366237       0.6955      -2.4413       0.6520       0.0000      -0.0698       0.0000
      2906      -1.16366238       0.6955      -2.4413       0.6520       0.0000      -0.0698       0.0000
      2909      -1.16366238       0.6955      -2.4413       0.6520       0.0000      -0.0698       0.0000
      2912      -1.16366238       0.6955      -2.4413       0.6520       0.0000      -0.0698       0.0000
      2931      -1.16366238       0.6955      -2.4413       0.6520       0.0000      -0.0698       0.0000
      2934      -1.16366238       0.6955      -2.4413       0.6520       0.0000      -0.0698       0.0000
      2937      -1.16366238       0.6955      -2.4413       0.6520       0.0000      -0.0698       0.0000
      2940      -1.16366238       0.6955      -2.4413       0.6520       0.0000      -0.0698       0.0000
      2955      -1.16366238       0.6955      -2.4413       0.6520       0.0000      -0.0698       0.0000
      2958      -1.16366238       0.6955      -2.4413       0.6520       0.0000      -0.0698       0.0000
      2971      -1.16366238       0.6955      -2.4413       0.6520       0.0000      -0.0698       0.0000
      2974      -1.16366238       0.6955      -2.4413       0.6520       0.0000      -0.0698       0.0000
      2981      -1.16366238       0.6955      -2.4413       0.6520       0.0000      -0.0698       0.0000
      2984      -1.16366238       0.6955      -2.4413       0.6520       0.0000      -0.0698       0.0000
      2987      -1.16366238       0.6955      -2.4413       0.6520       0.0000      -0.0698       0.0000
      2990      -1.16366238       0.6955      -2.4413       0.6520       0.0000      -0.0698       0.0000
      2993      -1.16366238       0.6955      -2.4413       0.6520       0.0000      -0.0698       0.0000
      3094      -1.16366238       0.6955      -2.4413       0.6520       0.0000      -0.0698       0.0000
      3097      -1.16366238       0.6955      -2.4413       0.6520       0.0000      -0.0698       0.0000
      3100      -1.16366239       0.6955      -2.4413       0.6519       0.0000      -0.0698       0.0000
      3103      -1.16366239       0.6955      -2.4413       0.6519       0.0000      -0.0698       0.0000
      3106      -1.16366239       0.6955      -2.4413       0.6519       0.0000      -0.0698       0.0000
      3109      -1.16366239       0.6955      -2.4413       0.6519       0.0000      -0.0698       0.0000
      3112      -1.16366239       0.6955      -2.4413       0.6519       0.0000      -0.0698       0.0000
      3131      -1.16366240       0.6955      -2.4413       0.6519       0.0000      -0.0698       0.0000
      3134      -1.16366240       0.6955      -2.4413       0.6519       0.0000      -0.0698       0.0000
      3137      -1.16366240       0.6955      -2.4413       0.6519       0.0000      -0.0698       0.0000
      3154      -1.16366240       0.6955      -2.4413       0.6519       0.0000      -0.0698       0.0000
      3157      -1.16366240       0.6955      -2.4413       0.6519       0.0000      -0.0698       0.0000
      3164      -1.16366240       0.6955      -2.4413       0.6519       0.0000      -0.0698       0.0000
      3171      -1.16366240       0.6955      -2.4413       0.6519       0.0000      -0.0698       0.0000
      3174      -1.16366240       0.6955      -2.4413       0.6519       0.0000      -0.0698       0.0000
      3181      -1.16366240       0.6955      -2.4413       0.6519       0.0000      -0.0698       0.0000
      3184      -1.16366240       0.6955      -2.4413       0.6519       0.0000      -0.0698       0.0000
      3187      -1.16366240       0.6955      -2.4413       0.6519       0.0000      -0.0698       0.0000
      3190      -1.16366240       0.6955      -2.4413       0.6519       0.0000      -0.0698       0.0000
      3293      -1.16366240       0.6955      -2.4413       0.6519       0.0000      -0.0698       0.0000
      3296      -1.16366240       0.6955      -2.4413       0.6519       0.0000      -0.0698       0.0000
      3299      -1.16366240       0.6955      -2.4413       0.6519       0.0000      -0.0698       0.0000
      3302      -1.16366240       0.6955      -2.4413       0.6519       0.0000      -0.0698       0.0000
[...]

 Vector    6  Occ=9.999118D-04
              MO Center= -7.1D-09, -7.2D-09,  1.3D-02, r^2= 5.8D-01
   Bfn.  Coefficient  Atom+Function         Bfn.  Coefficient  Atom+Function  
  ----- ------------  ---------------      ----- ------------  ---------------
     4     -0.424359  1 H  py                 3     -0.420721  1 H  px         
     9     -0.403414  2 H  py                 8     -0.399955  2 H  px         

 Vector    7  Occ=0.000000D+00
              MO Center= -2.2D-09,  2.0D-09, -1.2D-02, r^2= 1.1D+00
   Bfn.  Coefficient  Atom+Function         Bfn.  Coefficient  Atom+Function  
  ----- ------------  ---------------      ----- ------------  ---------------
     5      0.740830  1 H  pz                 6      0.701809  2 H  s          
    10     -0.638889  2 H  pz                 7     -0.561905  2 H  s          
     1      0.467768  1 H  s                  2     -0.193958  1 H  s          

 Vector    8  Occ=0.000000D+00
              MO Center= -1.4D-11,  1.2D-12, -1.3D-02, r^2= 7.6D-01
   Bfn.  Coefficient  Atom+Function         Bfn.  Coefficient  Atom+Function  
  ----- ------------  ---------------      ----- ------------  ---------------
     8     -0.977679  2 H  px                 3      0.960065  1 H  px         
     9      0.086772  2 H  py                 4     -0.085200  1 H  py         

 Vector    9  Occ=0.000000D+00
              MO Center=  1.3D-09,  1.4D-08, -1.3D-02, r^2= 7.6D-01
   Bfn.  Coefficient  Atom+Function         Bfn.  Coefficient  Atom+Function  
  ----- ------------  ---------------      ----- ------------  ---------------
     9     -0.977678  2 H  py                 4      0.960066  1 H  py         
     8     -0.086763  2 H  px                 3      0.085209  1 H  px         

 Vector   10  Occ=0.000000D+00
              MO Center= -2.2D-10,  2.0D-10, -2.1D-02, r^2= 1.3D+00
   Bfn.  Coefficient  Atom+Function         Bfn.  Coefficient  Atom+Function  
  ----- ------------  ---------------      ----- ------------  ---------------
     1      2.306197  1 H  s                  6     -2.218229  2 H  s          
    10     -1.442920  2 H  pz                 2     -1.433936  1 H  s          
     7      1.377412  2 H  s                  5     -1.341660  1 H  pz         

  dim1 dim2                    60                   10
  rlo rhi                     1                   60
  clo chi                     1                   10
  using                     1  nodes out of                     1

                                     beta mos
                                     --------

 Vector    1  Occ=9.755952D-01
              MO Center=  6.2D-11,  1.0D-10,  2.2D-03, r^2= 7.2D-01
   Bfn.  Coefficient  Atom+Function         Bfn.  Coefficient  Atom+Function  
  ----- ------------  ---------------      ----- ------------  ---------------
     1      0.407255  1 H  s                  6      0.407929  2 H  s          
     2      0.176013  1 H  s                  7      0.169703  2 H  s          
    10      0.020803  2 H  pz                 5     -0.019090  1 H  pz         

 Vector    2  Occ=1.824825D-02
              MO Center= -5.3D-10, -1.5D-08,  1.5D-01, r^2= 9.8D-01
   Bfn.  Coefficient  Atom+Function         Bfn.  Coefficient  Atom+Function  
  ----- ------------  ---------------      ----- ------------  ---------------
     6     -0.880486  2 H  s                  2      0.645819  1 H  s          
     1      0.556014  1 H  s                  7     -0.290471  2 H  s          
     5      0.160088  1 H  pz                10      0.086435  2 H  pz         

 Vector    3  Occ=4.173775D-03
              MO Center=  7.0D-09,  7.1D-09, -2.8D-01, r^2= 1.9D+00
   Bfn.  Coefficient  Atom+Function         Bfn.  Coefficient  Atom+Function  
  ----- ------------  ---------------      ----- ------------  ---------------
     7     -0.992022  2 H  s                  1      0.873132  1 H  s          
     5     -0.311077  1 H  pz                 2     -0.265911  1 H  s          
     6      0.240015  2 H  s                 10      0.038224  2 H  pz         

 Vector    4  Occ=9.216447D-25
              MO Center=  3.1D-11,  1.5D-11,  1.7D-01, r^2= 2.6D+00
   Bfn.  Coefficient  Atom+Function         Bfn.  Coefficient  Atom+Function  
  ----- ------------  ---------------      ----- ------------  ---------------
     2      2.043748  1 H  s                  7     -1.865258  2 H  s          
     5     -1.438476  1 H  pz                10     -1.428739  2 H  pz         
     6     -1.111152  2 H  s                  1      0.933960  1 H  s          

 Vector    5  Occ=9.828604D-04
              MO Center=  1.8D-09, -1.8D-09,  1.3D-02, r^2= 5.8D-01
   Bfn.  Coefficient  Atom+Function         Bfn.  Coefficient  Atom+Function  
  ----- ------------  ---------------      ----- ------------  ---------------
     3     -0.424370  1 H  px                 4      0.420731  1 H  py         
     8     -0.403402  2 H  px                 9      0.399944  2 H  py         

 Vector    6  Occ=9.999118D-04
              MO Center= -7.1D-09, -7.2D-09,  1.3D-02, r^2= 5.8D-01
   Bfn.  Coefficient  Atom+Function         Bfn.  Coefficient  Atom+Function  
  ----- ------------  ---------------      ----- ------------  ---------------
     4     -0.424359  1 H  py                 3     -0.420721  1 H  px         
     9     -0.403414  2 H  py                 8     -0.399955  2 H  px         

 Vector    7  Occ=0.000000D+00
              MO Center= -2.2D-09,  2.0D-09, -1.2D-02, r^2= 1.1D+00
   Bfn.  Coefficient  Atom+Function         Bfn.  Coefficient  Atom+Function  
  ----- ------------  ---------------      ----- ------------  ---------------
     5      0.740830  1 H  pz                 6      0.701809  2 H  s          
    10     -0.638889  2 H  pz                 7     -0.561905  2 H  s          
     1      0.467768  1 H  s                  2     -0.193958  1 H  s          

 Vector    8  Occ=0.000000D+00
              MO Center= -1.4D-11,  1.2D-12, -1.3D-02, r^2= 7.6D-01
   Bfn.  Coefficient  Atom+Function         Bfn.  Coefficient  Atom+Function  
  ----- ------------  ---------------      ----- ------------  ---------------
     8     -0.977679  2 H  px                 3      0.960065  1 H  px         
     9      0.086772  2 H  py                 4     -0.085200  1 H  py         

 Vector    9  Occ=0.000000D+00
              MO Center=  1.3D-09,  1.4D-08, -1.3D-02, r^2= 7.6D-01
   Bfn.  Coefficient  Atom+Function         Bfn.  Coefficient  Atom+Function  
  ----- ------------  ---------------      ----- ------------  ---------------
     9     -0.977678  2 H  py                 4      0.960066  1 H  py         
     8     -0.086763  2 H  px                 3      0.085209  1 H  px         

 Vector   10  Occ=0.000000D+00
              MO Center= -2.2D-10,  2.0D-10, -2.1D-02, r^2= 1.3D+00
   Bfn.  Coefficient  Atom+Function         Bfn.  Coefficient  Atom+Function  
  ----- ------------  ---------------      ----- ------------  ---------------
     1      2.306197  1 H  s                  6     -2.218229  2 H  s          
    10     -1.442920  2 H  pz                 2     -1.433936  1 H  s          
     7      1.377412  2 H  s                  5     -1.341660  1 H  pz         


 global array: alpha tos[1:10,1:10],  handle: -994 

            1           2           3           4           5           6  
       ----------- ----------- ----------- ----------- ----------- -----------
   1       0.98772    -0.13535    -0.06310     0.00057     0.03236     0.03250
   2       0.13509     0.99072    -0.01384    -0.00280    -0.00334    -0.00293
   3       0.06460     0.00511     0.99789    -0.00216    -0.00255    -0.00224
   4       0.00000     0.00285     0.00214     0.99999    -0.00071    -0.00067
   5      -0.03135     0.00770     0.00455     0.00068     0.99947    -0.00139
   6      -0.03162     0.00733     0.00425     0.00064     0.00032     0.99946
   7       0.00000     0.00000     0.00000     0.00000     0.00000     0.00000
   8       0.00000     0.00000     0.00000     0.00000     0.00000     0.00000
   9       0.00000     0.00000     0.00000     0.00000     0.00000     0.00000
  10       0.00000     0.00000     0.00000     0.00000     0.00000     0.00000

            7           8           9          10  
       ----------- ----------- ----------- -----------
   1       0.00000     0.00000     0.00000     0.00000
   2       0.00000     0.00000     0.00000     0.00000
   3       0.00000     0.00000     0.00000     0.00000
   4       0.00000     0.00000     0.00000     0.00000
   5       0.00000     0.00000     0.00000     0.00000
   6       0.00000     0.00000     0.00000     0.00000
   7       1.00000     0.00000     0.00000     0.00000
   8       0.00000     1.00000     0.00000     0.00000
   9       0.00000     0.00000     1.00000     0.00000
  10       0.00000     0.00000     0.00000     1.00000

 global array: beta tos[1:10,1:10],  handle: -993 

            1           2           3           4           5           6  
       ----------- ----------- ----------- ----------- ----------- -----------
   1       0.98772    -0.13535    -0.06310     0.00057     0.03236     0.03250
   2       0.13509     0.99072    -0.01384    -0.00280    -0.00334    -0.00293
   3       0.06460     0.00511     0.99789    -0.00216    -0.00255    -0.00224
   4       0.00000     0.00285     0.00214     0.99999    -0.00071    -0.00067
   5      -0.03135     0.00770     0.00455     0.00068     0.99947    -0.00139
   6      -0.03162     0.00733     0.00425     0.00064     0.00032     0.99946
   7       0.00000     0.00000     0.00000     0.00000     0.00000     0.00000
   8       0.00000     0.00000     0.00000     0.00000     0.00000     0.00000
   9       0.00000     0.00000     0.00000     0.00000     0.00000     0.00000
  10       0.00000     0.00000     0.00000     0.00000     0.00000     0.00000

            7           8           9          10  
       ----------- ----------- ----------- -----------
   1       0.00000     0.00000     0.00000     0.00000
   2       0.00000     0.00000     0.00000     0.00000
   3       0.00000     0.00000     0.00000     0.00000
   4       0.00000     0.00000     0.00000     0.00000
   5       0.00000     0.00000     0.00000     0.00000
   6       0.00000     0.00000     0.00000     0.00000
   7       1.00000     0.00000     0.00000     0.00000
   8       0.00000     1.00000     0.00000     0.00000
   9       0.00000     0.00000     1.00000     0.00000
  10       0.00000     0.00000     0.00000     1.00000

 global array: alpha mos[1:10,1:10],  handle: -996 

            1           2           3           4           5           6  
       ----------- ----------- ----------- ----------- ----------- -----------
   1      -0.00027     0.15390     0.10188     0.50668     0.00000    -0.00000
   2      -0.00118    -0.14788    -0.13877    -0.81815     0.00000     0.00000
   3      -0.16762     0.17726    -0.60350     0.10028    -0.00000     0.00000
   4      -0.00000    -0.00000    -0.00000    -0.00000     0.01445    -0.00462
   5       0.00000     0.00000     0.00000    -0.00000     0.00462     0.01444
   6      -0.00166    -0.94107    -0.22821     0.24385    -0.00000     0.00000
   7      -0.02054    -0.19190     0.73917    -0.06447    -0.00000    -0.00000
   8      -0.00000     0.00000     0.00000    -0.00000    -0.85684     0.51536
   9      -0.00000    -0.00000     0.00000    -0.00000     0.51536     0.85684
  10      -0.98564    -0.02442     0.08775    -0.01528     0.00000    -0.00000

            7           8           9          10  
       ----------- ----------- ----------- -----------
   1      -0.04059     0.00000     0.00000     0.84117
   2      -0.07218     0.00000    -0.00000     0.53320
   3      -0.75038     0.00000     0.00000    -0.05600
   4      -0.00000    -0.53841     0.84255    -0.00000
   5      -0.00000    -0.84255    -0.53841    -0.00000
   6      -0.00972     0.00000    -0.00000     0.05246
   7      -0.64037     0.00000    -0.00000    -0.04649
   8       0.00000    -0.00502     0.01432     0.00000
   9      -0.00000     0.01431     0.00500    -0.00000
  10       0.14107    -0.00000    -0.00000     0.00953

 global array: beta mos[1:10,1:10],  handle: -995 

            1           2           3           4           5           6  
       ----------- ----------- ----------- ----------- ----------- -----------
   1      -0.00027     0.15390     0.10188     0.50668     0.00000    -0.00000
   2      -0.00118    -0.14788    -0.13877    -0.81815     0.00000     0.00000
   3      -0.16762     0.17726    -0.60350     0.10028    -0.00000     0.00000
   4      -0.00000    -0.00000    -0.00000    -0.00000     0.01445    -0.00462
   5       0.00000     0.00000     0.00000    -0.00000     0.00462     0.01444
   6      -0.00166    -0.94107    -0.22821     0.24385    -0.00000     0.00000
   7      -0.02054    -0.19190     0.73917    -0.06447    -0.00000    -0.00000
   8      -0.00000     0.00000     0.00000    -0.00000    -0.85684     0.51536
   9      -0.00000    -0.00000     0.00000    -0.00000     0.51536     0.85684
  10      -0.98564    -0.02442     0.08775    -0.01528     0.00000    -0.00000

            7           8           9          10  
       ----------- ----------- ----------- -----------
   1      -0.04059     0.00000     0.00000     0.84117
   2      -0.07218     0.00000    -0.00000     0.53320
   3      -0.75038     0.00000     0.00000    -0.05600
   4      -0.00000    -0.53841     0.84255    -0.00000
   5      -0.00000    -0.84255    -0.53841    -0.00000
   6      -0.00972     0.00000    -0.00000     0.05246
   7      -0.64037     0.00000    -0.00000    -0.04649
   8       0.00000    -0.00502     0.01432     0.00000
   9      -0.00000     0.01431     0.00500    -0.00000
  10       0.14107    -0.00000    -0.00000     0.00953

 global array: orthog[1:10,1:10],  handle: -997 

            1           2           3           4           5           6  
       ----------- ----------- ----------- ----------- ----------- -----------
   1       2.56855     0.22791    -0.88314    -0.00000    -0.00000    -0.37900
   2      -0.09053    -2.48146     0.67623     0.00000     0.00000    -0.12234
   3      -0.00000    -0.00000     0.00000    -0.44930    -0.86282    -0.00000
   4      -0.00000    -0.00000    -0.00000     0.86282    -0.44930     0.00000
   5      -1.89453     0.42756    -0.40571    -0.00000    -0.00000    -0.50799
   6      -2.56855    -0.22791    -0.88314    -0.00000     0.00000     0.37900
   7       0.09053     2.48146     0.67623     0.00000    -0.00000     0.12234
   8       0.00000     0.00000    -0.00000     0.44930     0.86282    -0.00000
   9       0.00000     0.00000     0.00000    -0.86282     0.44930     0.00000
  10      -1.89453     0.42756     0.40571     0.00000    -0.00000    -0.50799

            7           8           9          10  
       ----------- ----------- ----------- -----------
   1       0.06335    -0.00000     0.00000    -0.26466
   2      -0.26498    -0.00000     0.00000    -0.28486
   3       0.00000     0.14320    -0.56502    -0.00000
   4       0.00000    -0.56502    -0.14320     0.00000
   5      -0.57956    -0.00000     0.00000     0.10131
   6       0.06335     0.00000    -0.00000    -0.26466
   7      -0.26498    -0.00000    -0.00000    -0.28486
   8       0.00000     0.14320    -0.56502    -0.00000
   9       0.00000    -0.56502    -0.14320     0.00000
  10       0.57956     0.00000     0.00000    -0.10131

 Task  times  cpu:     1154.5s     wall:     1154.5s


                                NWChem Input Module
                                -------------------


 Summary of allocated global arrays
-----------------------------------
  No active global arrays


MA_summarize_allocated_blocks: starting scan ...
MA_summarize_allocated_blocks: scan completed: 0 heap blocks, 0 stack blocks
MA usage statistics:

	allocation statistics:
					      heap	     stack
					      ----	     -----
	current number of blocks	         0	         0
	maximum number of blocks	        16	        14
	current total bytes		         0	         0
	maximum total bytes		     80120	  22509432
	maximum total K-bytes		        81	     22510
	maximum total M-bytes		         1	        23


                                     CITATION
                                     --------
                Please cite the following reference when publishing
                           results obtained with NWChem:

          E. Apra, E. J. Bylaska, W. A. de Jong, N. Govind, K. Kowalski,
       T. P. Straatsma, M. Valiev, H. J. J. van Dam, Y. Alexeev, J. Anchell,
       V. Anisimov, F. W. Aquino, R. Atta-Fynn, J. Autschbach, N. P. Bauman,
     J. C. Becca, D. E. Bernholdt, K. Bhaskaran-Nair, S. Bogatko, P. Borowski,
         J. Boschen, J. Brabec, A. Bruner, E. Cauet, Y. Chen, G. N. Chuev,
      C. J. Cramer, J. Daily, M. J. O. Deegan, T. H. Dunning Jr., M. Dupuis,
   K. G. Dyall, G. I. Fann, S. A. Fischer, A. Fonari, H. Fruchtl, L. Gagliardi,
      J. Garza, N. Gawande, S. Ghosh, K. Glaesemann, A. W. Gotz, J. Hammond,
       V. Helms, E. D. Hermes, K. Hirao, S. Hirata, M. Jacquelin, L. Jensen,
   B. G. Johnson, H. Jonsson, R. A. Kendall, M. Klemm, R. Kobayashi, V. Konkov,
      S. Krishnamoorthy, M. Krishnan, Z. Lin, R. D. Lins, R. J. Littlefield,
      A. J. Logsdail, K. Lopata, W. Ma, A. V. Marenich, J. Martin del Campo,
   D. Mejia-Rodriguez, J. E. Moore, J. M. Mullin, T. Nakajima, D. R. Nascimento,
    J. A. Nichols, P. J. Nichols, J. Nieplocha, A. Otero-de-la-Roza, B. Palmer,
    A. Panyala, T. Pirojsirikul, B. Peng, R. Peverati, J. Pittner, L. Pollack,
   R. M. Richard, P. Sadayappan, G. C. Schatz, W. A. Shelton, D. W. Silverstein,
   D. M. A. Smith, T. A. Soares, D. Song, M. Swart, H. L. Taylor, G. S. Thomas,
            V. Tipparaju, D. G. Truhlar, K. Tsemekhman, T. Van Voorhis,
      A. Vazquez-Mayagoitia, P. Verma, O. Villa, A. Vishnu, K. D. Vogiatzis,
        D. Wang, J. H. Weare, M. J. Williamson, T. L. Windus, K. Wolinski,
        A. T. Wong, Q. Wu, C. Yang, Q. Yu, M. Zacharias, Z. Zhang, Y. Zhao,
                                and R. J. Harrison
                        "NWChem: Past, present, and future
                         J. Chem. Phys. 152, 184102 (2020)
                               doi:10.1063/5.0004997

                                      AUTHORS
                                      -------
  E. Apra, E. J. Bylaska, N. Govind, K. Kowalski, M. Valiev, D. Mejia-Rodriguez,
       A. Kunitsa, N. P. Bauman, A. Panyala, W. A. de Jong, T. P. Straatsma,
   H. J. J. van Dam, D. Wang, T. L. Windus, J. Hammond, J. Autschbach, A. Woods,
    K. Bhaskaran-Nair, J. Brabec, K. Lopata, S. A. Fischer, S. Krishnamoorthy,
     M. Jacquelin, W. Ma, M. Klemm, O. Villa, Y. Chen, V. Anisimov, F. Aquino,
     S. Hirata, M. T. Hackler, E. Hermes, L. Jensen, J. E. Moore, J. C. Becca,
      V. Konjkov, T. Risthaus, M. Malagoli, A. Marenich, A. Otero-de-la-Roza,
        J. Mullin, P. Nichols, R. Peverati, J. Pittner, Y. Zhao, P.-D. Fan,
        A. Fonari, M. J. Williamson, R. J. Harrison, J. R. Rehr, M. Dupuis,
     D. Silverstein, D. M. A. Smith, J. Nieplocha, V. Tipparaju, M. Krishnan,
     B. E. Van Kuiken, A. Vazquez-Mayagoitia, M. Swart, Q. Wu, T. Van Voorhis,
     A. A. Auer, M. Nooijen, L. D. Crosby, E. Brown, G. Cisneros, G. I. Fann,
   H. Fruchtl, J. Garza, K. Hirao, R. A. Kendall, J. A. Nichols, K. Tsemekhman,
    K. Wolinski, J. Anchell, D. E. Bernholdt, P. Borowski, T. Clark, D. Clerc,
   H. Dachsel, M. J. O. Deegan, K. Dyall, D. Elwood, E. Glendening, M. Gutowski,
   A. C. Hess, J. Jaffe, B. G. Johnson, J. Ju, R. Kobayashi, R. Kutteh, Z. Lin,
   R. Littlefield, X. Long, B. Meng, T. Nakajima, S. Niu, L. Pollack, M. Rosing,
   K. Glaesemann, G. Sandrone, M. Stave, H. Taylor, G. Thomas, J. H. van Lenthe,
                               A. T. Wong, Z. Zhang.

 Total times  cpu:     1154.7s     wall:     1154.7s
