 argument  1 = mcscf_h2.nw



============================== echo of input deck ==============================
echo
start mcscf_h2_dat

scratch_dir .
permanent_dir .

geometry units angstrom
  symmetry d2h
  h 0.0 0.0 -0.38044621
  h 0.0 0.0  0.38044621
end

basis spherical
  * library cc-pvdz
end

mcscf
  active 10
  actelec 2
  multiplicity 1
end

task scf energy
task mcscf optimize
================================================================================


                                         
                                         


             Northwest Computational Chemistry Package (NWChem) 7.2.1
             --------------------------------------------------------


                    Environmental Molecular Sciences Laboratory
                       Pacific Northwest National Laboratory
                                Richland, WA 99352

                              Copyright (c) 1994-2022
                       Pacific Northwest National Laboratory
                            Battelle Memorial Institute

             NWChem is an open-source computational chemistry package
                        distributed under the terms of the
                      Educational Community License (ECL) 2.0
             A copy of the license is included with this distribution
                              in the LICENSE.TXT file

                                  ACKNOWLEDGMENT
                                  --------------

            This software and its documentation were developed at the
            EMSL at Pacific Northwest National Laboratory, a multiprogram
            national laboratory, operated for the U.S. Department of Energy
            by Battelle under Contract Number DE-AC05-76RL01830. Support
            for this work was provided by the Department of Energy Office
            of Biological and Environmental Research, Office of Basic
            Energy Sciences, and the Office of Advanced Scientific Computing.


           Job information
           ---------------

    hostname        = lima-apptainer-al9
    program         = ../../../bin/LINUX64/nwchem
    date            = Sat Apr 19 16:52:20 2025

    compiled        = Sat_Apr_19_16:41:05_2025
    source          = /Users/hubertusvandam/Documents/nwchem-1-noft.nosync
    nwchem branch   = 7.2.1
    nwchem revision = nwchem_on_git-5531-ge8376a4b81
    ga revision     = 5.8.0
    use scalapack   = F
    input           = mcscf_h2.nw
    prefix          = mcscf_h2_dat.
    data base       = ./mcscf_h2_dat.db
    status          = startup
    nproc           =        1
    time left       =     -1s



           Memory information
           ------------------

    heap     =     26214398 doubles =      200.0 Mbytes
    stack    =     26214395 doubles =      200.0 Mbytes
    global   =     52428800 doubles =      400.0 Mbytes (distinct from heap & stack)
    total    =    104857593 doubles =      800.0 Mbytes
    verify   = yes
    hardfail = no 


           Directory information
           ---------------------

  0 permanent = .
  0 scratch   = .




                                NWChem Input Module
                                -------------------



 Scaling coordinates for geometry "geometry" by  1.889725989
 (inverse scale =  0.529177249)

 Turning off AUTOSYM since
 SYMMETRY directive was detected!


          ------
          auto-z
          ------
  no constraints, skipping    0.0000000000000000     
  no constraints, skipping    0.0000000000000000     


                             Geometry "geometry" -> ""
                             -------------------------

 Output coordinates in angstroms (scale by  1.889725989 to convert to a.u.)

  No.       Tag          Charge          X              Y              Z
 ---- ---------------- ---------- -------------- -------------- --------------
    1 h                    1.0000     0.00000000     0.00000000    -0.38044621
    2 h                    1.0000     0.00000000     0.00000000     0.38044621

      Atomic Mass 
      ----------- 

      h                  1.007825


 Effective nuclear repulsion energy (a.u.)       0.6954692084

            Nuclear Dipole moment (a.u.) 
            ----------------------------
        X                 Y               Z
 ---------------- ---------------- ----------------
     0.0000000000     0.0000000000     0.0000000000

      Symmetry information
      --------------------

 Group name             D2h       
 Group number             26
 Group order               8
 No. of unique centers     1

      Symmetry unique atoms

     1



                                Z-matrix (autoz)
                                -------- 

 Units are Angstrom for bonds and degrees for angles

      Type          Name      I     J     K     L     M      Value
      ----------- --------  ----- ----- ----- ----- ----- ----------
    1 Stretch                  1     2                       0.76089


            XYZ format geometry
            -------------------
     2
 geometry
 h                     0.00000000     0.00000000    -0.38044621
 h                     0.00000000     0.00000000     0.38044621



 Summary of "ao basis" -> "" (spherical)
 ------------------------------------------------------------------------------
       Tag                 Description            Shells   Functions and Types
 ---------------- ------------------------------  ------  ---------------------
 *                          cc-pvdz                   on all atoms 


                      Basis "ao basis" -> "ao basis" (spherical)
                      -----
  h (Hydrogen)
  ------------
            Exponent  Coefficients 
       -------------- ---------------------------------------------------------
  1 S  1.30100000E+01  0.019685
  1 S  1.96200000E+00  0.137977
  1 S  4.44600000E-01  0.478148

  2 S  1.22000000E-01  1.000000

  3 P  7.27000000E-01  1.000000



 Summary of "ao basis" -> "ao basis" (spherical)
 ------------------------------------------------------------------------------
       Tag                 Description            Shells   Functions and Types
 ---------------- ------------------------------  ------  ---------------------
 h                          cc-pvdz                  3        5   2s1p


                                 NWChem SCF Module
                                 -----------------



  ao basis        = "ao basis"
  functions       =    10
  atoms           =     2
  closed shells   =     1
  open shells     =     0
  charge          =   0.00
  wavefunction    = RHF 
  input vectors   = atomic
  output vectors  = ./mcscf_h2_dat.movecs
  use symmetry    = T
  symmetry adapt  = T


 Summary of "ao basis" -> "ao basis" (spherical)
 ------------------------------------------------------------------------------
       Tag                 Description            Shells   Functions and Types
 ---------------- ------------------------------  ------  ---------------------
 h                          cc-pvdz                  3        5   2s1p


      Symmetry analysis of basis
      --------------------------

        ag          3
        au          0
        b1g         0
        b1u         3
        b2g         1
        b2u         1
        b3g         1
        b3u         1


 Forming initial guess at       0.1s


      Superposition of Atomic Density Guess
      -------------------------------------

 Sum of atomic energies:          -0.99855800

      Non-variational initial energy
      ------------------------------

 Total energy =      -0.848623
 1-e energy   =      -2.198859
 2-e energy   =       0.654766
 HOMO         =      -0.573389
 LUMO         =       0.137948


      Symmetry analysis of molecular orbitals - initial
      -------------------------------------------------


 !! scf_movecs_sym_adapt:    4 vectors were symmetry contaminated

  Symmetry fudging

 !! scf_movecs_sym_adapt:    4 vectors were symmetry contaminated

  Numbering of irreducible representations: 

     1 ag          2 au          3 b1g         4 b1u         5 b2g     
     6 b2u         7 b3g         8 b3u     

  Orbital symmetries:

     1 ag          2 b1u         3 ag          4 b1u         5 b3u     
     6 b2u         7 ag          8 b3g         9 b2g        10 b1u     


 Starting SCF solution at       0.1s



 ----------------------------------------------
         Quadratically convergent ROHF

 Convergence threshold     :          1.000E-04
 Maximum no. of iterations :           30
 Final Fock-matrix accuracy:          1.000E-07
 ----------------------------------------------

HVD: EAF_MAX_FILES: 1024
HVD: eaf_open: 0: ./mcscf_h2_dat.junk.0

 #quartets = 1.560D+02 #integrals = 4.020D+02 #direct =  0.0% #cached =100.0%


 Integral file          = ./mcscf_h2_dat.aoints.0
 Record size in doubles =    65536    No. of integs per rec  =    43688
 Max. records in memory =        3    Max. records in file   = ********
 No. of bits per label  =        8    No. of bits per value  =       64

 HVD: begin file_write_ga: ./mcscf_h2_dat.cfock                                                                                                                                                                                                                                           
HVD: EAF_MAX_FILES: 1024
HVD: eaf_open: 0: ./mcscf_h2_dat.cfock
 HVD: end   file_write_ga

              iter       energy          gnorm     gmax       time
             ----- ------------------- --------- --------- --------
                 1       -1.1272509284  1.02D-01  9.70D-02      0.1
 HVD: begin file_write_ga: ./mcscf_h2_dat.cfock                                                                                                                                                                                                                                           
HVD: EAF_MAX_FILES: 1024
HVD: eaf_open: 0: ./mcscf_h2_dat.cfock
 HVD: end   file_write_ga
                 2       -1.1286276268  4.91D-03  4.41D-03      0.1
 HVD: begin file_write_ga: ./mcscf_h2_dat.cfock                                                                                                                                                                                                                                           
HVD: EAF_MAX_FILES: 1024
HVD: eaf_open: 0: ./mcscf_h2_dat.cfock
 HVD: end   file_write_ga
                 3       -1.1286294916  5.02D-07  4.46D-07      0.1


       Final RHF  results 
       ------------------ 

         Total SCF energy =     -1.128629491594
      One-electron energy =     -2.475843808619
      Two-electron energy =      0.651745108645
 Nuclear repulsion energy =      0.695469208380

        Time for solution =      0.0s



       Symmetry analysis of molecular orbitals - final
       -----------------------------------------------

  Numbering of irreducible representations: 

     1 ag          2 au          3 b1g         4 b1u         5 b2g     
     6 b2u         7 b3g         8 b3u     

  Orbital symmetries:

     1 ag          2 b1u         3 ag          4 b1u         5 b3u     
     6 b2u         7 ag          8 b3g         9 b2g        10 b1u     

             Final eigenvalues
             -----------------

              1      
    1   -0.5862
    2    0.1934
    3    0.4843
    4    0.9226
    5    1.2907
    6    1.2907
    7    1.9366
    8    2.0293
    9    2.0293
   10    3.4887

                       ROHF Final Molecular Orbital Analysis
                       -------------------------------------

 Vector    1  Occ=2.000000D+00  E=-5.861768D-01  Symmetry=ag
              MO Center= -6.2D-18,  1.7D-18, -7.8D-18, r^2= 7.3D-01
   Bfn.  Coefficient  Atom+Function         Bfn.  Coefficient  Atom+Function  
  ----- ------------  ---------------      ----- ------------  ---------------
     1      0.401244  1 H  s                  6      0.401244  2 H  s          
     2      0.178632  1 H  s                  7      0.178632  2 H  s          

 Vector    2  Occ=0.000000D+00  E= 1.934002D-01  Symmetry=b1u
              MO Center=  7.8D-30, -5.2D-30, -5.4D-16, r^2= 2.7D+00
   Bfn.  Coefficient  Atom+Function         Bfn.  Coefficient  Atom+Function  
  ----- ------------  ---------------      ----- ------------  ---------------
     2      1.897312  1 H  s                  7     -1.897312  2 H  s          
     1      0.154108  1 H  s                  6     -0.154108  2 H  s          

 Vector    3  Occ=0.000000D+00  E= 4.843334D-01  Symmetry=ag
              MO Center=  5.8D-35, -1.5D-35,  4.9D-16, r^2= 2.3D+00
   Bfn.  Coefficient  Atom+Function         Bfn.  Coefficient  Atom+Function  
  ----- ------------  ---------------      ----- ------------  ---------------
     2     -0.727074  1 H  s                  7     -0.727074  2 H  s          
     1      0.706594  1 H  s                  6      0.706594  2 H  s          

 Vector    4  Occ=0.000000D+00  E= 9.226304D-01  Symmetry=b1u
              MO Center=  1.2D-35,  1.9D-34, -2.0D-16, r^2= 1.6D+00
   Bfn.  Coefficient  Atom+Function         Bfn.  Coefficient  Atom+Function  
  ----- ------------  ---------------      ----- ------------  ---------------
     2      1.604171  1 H  s                  7     -1.604171  2 H  s          
     1     -0.786584  1 H  s                  6      0.786584  2 H  s          
     5      0.392187  1 H  pz                10      0.392187  2 H  pz         

 Vector    5  Occ=0.000000D+00  E= 1.290703D+00  Symmetry=b3u
              MO Center=  6.4D-18,  5.7D-62, -2.8D-36, r^2= 5.8D-01
   Bfn.  Coefficient  Atom+Function         Bfn.  Coefficient  Atom+Function  
  ----- ------------  ---------------      ----- ------------  ---------------
     3      0.582886  1 H  px                 8      0.582886  2 H  px         

 Vector    6  Occ=0.000000D+00  E= 1.290703D+00  Symmetry=b2u
              MO Center= -3.3D-53, -1.7D-18, -5.6D-17, r^2= 5.8D-01
   Bfn.  Coefficient  Atom+Function         Bfn.  Coefficient  Atom+Function  
  ----- ------------  ---------------      ----- ------------  ---------------
     4      0.582886  1 H  py                 9      0.582886  2 H  py         

 Vector    7  Occ=0.000000D+00  E= 1.936587D+00  Symmetry=ag
              MO Center= -1.2D-19,  6.4D-21,  0.0D+00, r^2= 8.1D-01
   Bfn.  Coefficient  Atom+Function         Bfn.  Coefficient  Atom+Function  
  ----- ------------  ---------------      ----- ------------  ---------------
     5      0.714165  1 H  pz                10     -0.714165  2 H  pz         
     1     -0.440130  1 H  s                  6     -0.440130  2 H  s          
     2      0.219308  1 H  s                  7      0.219308  2 H  s          

 Vector    8  Occ=0.000000D+00  E= 2.029325D+00  Symmetry=b3g
              MO Center=  1.4D-49,  5.2D-30, -9.5D-38, r^2= 7.6D-01
   Bfn.  Coefficient  Atom+Function         Bfn.  Coefficient  Atom+Function  
  ----- ------------  ---------------      ----- ------------  ---------------
     4      0.972794  1 H  py                 9     -0.972794  2 H  py         

 Vector    9  Occ=0.000000D+00  E= 2.029325D+00  Symmetry=b2g
              MO Center= -7.8D-30, -2.0D-51, -3.5D-40, r^2= 7.6D-01
   Bfn.  Coefficient  Atom+Function         Bfn.  Coefficient  Atom+Function  
  ----- ------------  ---------------      ----- ------------  ---------------
     3      0.972794  1 H  px                 8     -0.972794  2 H  px         

 Vector   10  Occ=0.000000D+00  E= 3.488682D+00  Symmetry=b1u
              MO Center=  8.6D-33, -1.6D-33,  1.1D-16, r^2= 7.0D-01
   Bfn.  Coefficient  Atom+Function         Bfn.  Coefficient  Atom+Function  
  ----- ------------  ---------------      ----- ------------  ---------------
     1      2.480056  1 H  s                  6     -2.480056  2 H  s          
     5      1.968794  1 H  pz                10      1.968794  2 H  pz         


 center of mass
 --------------
 x =   0.00000000 y =   0.00000000 z =   0.00000000

 moments of inertia (a.u.)
 ------------------
           1.041835900058           0.000000000000           0.000000000000
           0.000000000000           1.041835900058           0.000000000000
           0.000000000000           0.000000000000           0.000000000000

  Mulliken analysis of the total density
  --------------------------------------

    Atom       Charge   Shell Charges
 -----------   ------   -------------------------------------------------------
    1 H    1     1.00   0.69  0.30  0.01
    2 H    1     1.00   0.69  0.30  0.01

       Multipole analysis of the density wrt the origin
       ------------------------------------------------

     L   x y z        total         open         nuclear
     -   - - -        -----         ----         -------
     0   0 0 0     -0.000000      0.000000      2.000000

     1   1 0 0      0.000000      0.000000      0.000000
     1   0 1 0     -0.000000      0.000000      0.000000
     1   0 0 1     -0.000000      0.000000      0.000000

     2   2 0 0     -1.535838      0.000000      0.000000
     2   1 1 0      0.000000      0.000000      0.000000
     2   1 0 1      0.000000      0.000000      0.000000
     2   0 2 0     -1.535838      0.000000      0.000000
     2   0 1 1      0.000000      0.000000      0.000000
     2   0 0 2     -1.075129      0.000000      1.033747


 Parallel integral file used       1 records with       0 large values


 Task  times  cpu:        0.0s     wall:        0.0s


                                NWChem Input Module
                                -------------------




                           NWChem Geometry Optimization
                           ----------------------------


  no constraints, skipping    0.0000000000000000     
 maximum gradient threshold         (gmax) =   0.000450
 rms gradient threshold             (grms) =   0.000300
 maximum cartesian step threshold   (xmax) =   0.001800
 rms cartesian step threshold       (xrms) =   0.001200
 fixed trust radius                (trust) =   0.300000
 maximum step size to saddle      (sadstp) =   0.100000
 energy precision                  (eprec) =   1.0D-07
 maximum number of steps          (nptopt) =   40
 initial hessian option           (inhess) =    0
 line search option               (linopt) =    1
 hessian update option            (modupd) =    1
 saddle point option              (modsad) =    0
 initial eigen-mode to follow     (moddir) =    0
 initial variable to follow       (vardir) =    0
 follow first negative mode     (firstneg) =    T
 apply conjugacy                    (opcg) =    F
 source of zmatrix                         =   autoz   


          -------------------
          Energy Minimization
          -------------------


 Names of Z-matrix variables 
    1         

 Variables with the same non-blank name are constrained to be equal


 Using old Hessian from previous optimization

          --------
          Step   0
          --------


                         Geometry "geometry" -> "geometry"
                         ---------------------------------

 Output coordinates in angstroms (scale by  1.889725989 to convert to a.u.)

  No.       Tag          Charge          X              Y              Z
 ---- ---------------- ---------- -------------- -------------- --------------
    1 h                    1.0000     0.00000000     0.00000000    -0.38044621
    2 h                    1.0000     0.00000000     0.00000000     0.38044621

      Atomic Mass 
      ----------- 

      h                  1.007825


 Effective nuclear repulsion energy (a.u.)       0.6954692084

            Nuclear Dipole moment (a.u.) 
            ----------------------------
        X                 Y               Z
 ---------------- ---------------- ----------------
     0.0000000000     0.0000000000     0.0000000000

      Symmetry information
      --------------------

 Group name             D2h       
 Group number             26
 Group order               8
 No. of unique centers     1

      Symmetry unique atoms

     1


                            NWChem Direct MCSCF Module
                            --------------------------


     -----------------------------------
       Basis functions:             10
       Inactive shells:              0
       Active shells:               10
       Active electrons:             2
       Symmetry:                    ag      
       Multiplicity:                 1
       Orbital rotations:            0
     -----------------------------------

     -----------------------------------
       E2 extrapolation:             F
       Conjugacy:                    T
       Micro CI relax:               T
       Canonical orbitals:           T
       Maximum iterations:          20
       Converge threshold:    1.00E-04
       Conjugacy resets:            20
       Initial levelshift:        0.10
     -----------------------------------

   input molecular orbitals = ./mcscf_h2_dat.movecs
  output molecular orbtials = ./mcscf_h2_dat.movecs

       No. of determinants:           100


  Starting Orbital Energies
    -0.586177     0.484333     1.936587     0.193400     0.922630     3.488682
     2.029325     1.290703     2.029325     1.290703

  Orbital Symmetry Irreps
ag   ag   ag   b1u  b1u  b1u  b2g  b2u  b3g  b3u 
HVD: EAF_MAX_FILES: 1024
HVD: eaf_open: 0: ./mcscf_h2_dat.moao.0
  !! warning: moints 2x:                     1  MO vectors were symmetry contaminated
HVD: EOF_Open: 0 ./mcscf_h2_dat.moao.0 0
HVD: EAF_MAX_FILES: 1024
HVD: eaf_open: 1: ./mcscf_h2_dat.junk.0

 #quartets = 1.560D+02 #integrals = 4.020D+02 #direct =  0.0% #cached =100.0%


 Integral file          = ./mcscf_h2_dat.aoints.0
 Record size in doubles =    65536    No. of integs per rec  =    43688
 Max. records in memory =        3    Max. records in file   = ********
 No. of bits per label  =        8    No. of bits per value  =       64




          %%%%% MacroIteration   1 %%%%%

 HVD: begin file_write_ga: ./mcscf_h2_dat.civec                                                                                                                                                                                                                                           
HVD: EOF_Open: 0 ./mcscf_h2_dat.moao.0 0
HVD: EAF_MAX_FILES: 1024
HVD: eaf_open: 1: ./mcscf_h2_dat.civec
 HVD: end   file_write_ga

          Number of sigma calls:        8
                       o<<<<< (aa):             0.00
                       o<<<<< (bb):             0.00
                       o<<<<< (ab):             0.00
                       o<<<<< (total)           0.00
                       o<<<<< (aa) ff           0.00
                       o<<<<< (aa) gop          0.00
                       o<<<<< (aa) dot          0.00
                       o<<<<< (ab) str          0.00
                       o<<<<< (ab) gath         0.00
                       o<<<<< (ab) dotab        0.00
                       o<<<<< (ab) scat         0.00
                       o<<<<< (ab) sync         0.00
                       o<<<<< Density           0.00
                       o<<<<< Density one       0.00
                       o<<<<< Density two       0.00
                       o<<<<< Density ab        0.00
                       o<<<<< Spin adapt        0.00
                       o<<<<< Symm adapt        0.00

                       o<<<<< (ab) max sync:      0.00

           >>>| Valence CI:             -1.859142189578
           >>>| MCSCF energy:           -1.163672981198
           >>>| Gradient norm:          0.000000000D+00




     ==============================
            MCSCF Converged
     ==============================



          Canonical Eigenvalues

              1      
    1   -0.5862
    2    0.4843
    3    1.9366
    4    0.1934
    5    0.9226
    6    3.4887
    7    2.0293
    8    1.2907
    9    2.0293
   10    1.2907

 HVD: begin file_read_ga: ./mcscf_h2_dat.civec                                                                                                                                                                                                                                           
HVD: EOF_Open: 0 ./mcscf_h2_dat.moao.0 0
HVD: EAF_MAX_FILES: 1024
HVD: eaf_open: 1: ./mcscf_h2_dat.civec
 HVD: end   file_read_ga

          Converged CI vector

   Index           Coefficient          Config. Occupation
         1          0.99120674          1  1
        12         -0.05033921          2  2
        34         -0.05622922          4  4
        35          0.04826927          4  5
        44          0.04826927          5  4
        45         -0.05296197          5  5
        78         -0.03938296          8  8
       100         -0.03938296         10 10
 HVD: begin file_write_ga: ./mcscf_h2_dat.civec                                                                                                                                                                                                                                           
HVD: EOF_Open: 0 ./mcscf_h2_dat.moao.0 0
HVD: EAF_MAX_FILES: 1024
HVD: eaf_open: 1: ./mcscf_h2_dat.civec
 HVD: end   file_write_ga

          Number of sigma calls:        1
                       o<<<<< (aa):             0.00
                       o<<<<< (bb):             0.00
                       o<<<<< (ab):             0.00
                       o<<<<< (total)           0.00
                       o<<<<< (aa) ff           0.00
                       o<<<<< (aa) gop          0.00
                       o<<<<< (aa) dot          0.00
                       o<<<<< (ab) str          0.00
                       o<<<<< (ab) gath         0.00
                       o<<<<< (ab) dotab        0.00
                       o<<<<< (ab) scat         0.00
                       o<<<<< (ab) sync         0.00
                       o<<<<< Density           0.00
                       o<<<<< Density one       0.00
                       o<<<<< Density two       0.00
                       o<<<<< Density ab        0.00
                       o<<<<< Spin adapt        0.00
                       o<<<<< Symm adapt        0.00

                       o<<<<< (ab) max sync:      0.00



          Natural orbital occupation numbers

              1      
    1    1.9652
    2    0.0218
    3    0.0061
    4    0.0031
    5    0.0031
    6    0.0002
    7    0.0002
    8    0.0002
    9    0.0002
   10    0.0000

  !! warning: moints 2x:                     2  MO vectors were symmetry contaminated
 HVD: begin file_write_ga: ./mcscf_h2_dat.civec                                                                                                                                                                                                                                           
HVD: EOF_Open: 0 ./mcscf_h2_dat.moao.0 0
HVD: EAF_MAX_FILES: 1024
HVD: eaf_open: 1: ./mcscf_h2_dat.civec
 HVD: end   file_write_ga

          Number of sigma calls:       17
                       o<<<<< (aa):             0.00
                       o<<<<< (bb):             0.00
                       o<<<<< (ab):             0.00
                       o<<<<< (total)           0.00
                       o<<<<< (aa) ff           0.00
                       o<<<<< (aa) gop          0.00
                       o<<<<< (aa) dot          0.00
                       o<<<<< (ab) str          0.00
                       o<<<<< (ab) gath         0.00
                       o<<<<< (ab) dotab        0.00
                       o<<<<< (ab) scat         0.00
                       o<<<<< (ab) sync         0.00
                       o<<<<< Density           0.00
                       o<<<<< Density one       0.00
                       o<<<<< Density two       0.00
                       o<<<<< Density ab        0.00
                       o<<<<< Spin adapt        0.00
                       o<<<<< Symm adapt        0.00

                       o<<<<< (ab) max sync:      0.00


       Final MCSCF results 
       ------------------- 

       Total MCSCF energy =     -1.163672981198
            Gradient norm =      0.0D+00

    CPU time for solution =      0.1s
   Wall time for solution =      0.1s



                        Analysis of MCSCF natural orbitals
                        ----------------------------------

 Vector    1  Occ=1.965218D+00  E=-5.861768D-01  Symmetry=ag
              MO Center= -6.2D-18,  1.7D-18,  0.0D+00, r^2= 7.2D-01
   Bfn.  Coefficient  Atom+Function         Bfn.  Coefficient  Atom+Function  
  ----- ------------  ---------------      ----- ------------  ---------------
     1      0.407596  1 H  s                  6      0.407596  2 H  s          
     2      0.173111  1 H  s                  7      0.173111  2 H  s          

 Vector    2  Occ=2.176579D-02  E= 4.843334D-01  Symmetry=b1u
              MO Center=  6.7D-30, -4.5D-30,  0.0D+00, r^2= 7.4D-01
   Bfn.  Coefficient  Atom+Function         Bfn.  Coefficient  Atom+Function  
  ----- ------------  ---------------      ----- ------------  ---------------
     1      0.952399  1 H  s                  6     -0.952399  2 H  s          
     2      0.248329  1 H  s                  7     -0.248329  2 H  s          

 Vector    3  Occ=6.118041D-03  E= 1.936587D+00  Symmetry=ag
              MO Center=  5.2D-20, -2.0D-21,  5.5D-16, r^2= 1.9D+00
   Bfn.  Coefficient  Atom+Function         Bfn.  Coefficient  Atom+Function  
  ----- ------------  ---------------      ----- ------------  ---------------
     2      0.614550  1 H  s                  7      0.614550  2 H  s          
     1     -0.519675  1 H  s                  6     -0.519675  2 H  s          
     5     -0.250103  1 H  pz                10      0.250103  2 H  pz         

 Vector    4  Occ=3.102035D-03  E= 1.934002D-01  Symmetry=b2u
              MO Center= -3.3D-53, -1.7D-18, -5.6D-17, r^2= 5.8D-01
   Bfn.  Coefficient  Atom+Function         Bfn.  Coefficient  Atom+Function  
  ----- ------------  ---------------      ----- ------------  ---------------
     4      0.582886  1 H  py                 9      0.582886  2 H  py         

 Vector    5  Occ=3.102035D-03  E= 9.226304D-01  Symmetry=b3u
              MO Center=  6.4D-18,  5.7D-62, -2.8D-36, r^2= 5.8D-01
   Bfn.  Coefficient  Atom+Function         Bfn.  Coefficient  Atom+Function  
  ----- ------------  ---------------      ----- ------------  ---------------
     3      0.582886  1 H  px                 8      0.582886  2 H  px         

 Vector    6  Occ=2.066986D-04  E= 3.488682D+00  Symmetry=ag
              MO Center= -1.9D-19,  1.1D-20, -5.6D-17, r^2= 1.2D+00
   Bfn.  Coefficient  Atom+Function         Bfn.  Coefficient  Atom+Function  
  ----- ------------  ---------------      ----- ------------  ---------------
     5     -0.669204  1 H  pz                10      0.669204  2 H  pz         
     1      0.646367  1 H  s                  6      0.646367  2 H  s          
     2     -0.448334  1 H  s                  7     -0.448334  2 H  s          

 Vector    7  Occ=1.592411D-04  E= 2.029325D+00  Symmetry=b1u
              MO Center=  0.0D+00,  0.0D+00,  2.8D-16, r^2= 2.1D+00
   Bfn.  Coefficient  Atom+Function         Bfn.  Coefficient  Atom+Function  
  ----- ------------  ---------------      ----- ------------  ---------------
     1      1.880753  1 H  s                  6     -1.880753  2 H  s          
     2     -1.857079  1 H  s                  7      1.857079  2 H  s          
     5      1.054236  1 H  pz                10      1.054236  2 H  pz         

 Vector    8  Occ=1.574800D-04  E= 1.290703D+00  Symmetry=b3g
              MO Center=  1.4D-49,  5.2D-30, -9.5D-38, r^2= 7.6D-01
   Bfn.  Coefficient  Atom+Function         Bfn.  Coefficient  Atom+Function  
  ----- ------------  ---------------      ----- ------------  ---------------
     4      0.972794  1 H  py                 9     -0.972794  2 H  py         

 Vector    9  Occ=1.574800D-04  E= 2.029325D+00  Symmetry=b2g
              MO Center= -7.8D-30, -2.0D-51, -3.5D-40, r^2= 7.6D-01
   Bfn.  Coefficient  Atom+Function         Bfn.  Coefficient  Atom+Function  
  ----- ------------  ---------------      ----- ------------  ---------------
     3      0.972794  1 H  px                 8     -0.972794  2 H  px         

 Vector   10  Occ=1.324432D-05  E= 1.290703D+00  Symmetry=b1u
              MO Center=  0.0D+00,  0.0D+00,  4.4D-16, r^2= 2.1D+00
   Bfn.  Coefficient  Atom+Function         Bfn.  Coefficient  Atom+Function  
  ----- ------------  ---------------      ----- ------------  ---------------
     5      1.708234  1 H  pz                10      1.708234  2 H  pz         
     2      1.634151  1 H  s                  7     -1.634151  2 H  s          
     1      1.532595  1 H  s                  6     -1.532595  2 H  s          

HVD: EOF_Open: 0 ./mcscf_h2_dat.moao.0 0
HVD: EAF_MAX_FILES: 1024
HVD: eaf_open: 1: ./mcscf_h2_dat.mcpdm

 Wrote Lagrangian and 1- and 2-particle density matrices to ./mcscf_h2_dat.mcpdm


     Multipole analysis of the density
     ---------------------------------

     L   x y z        total        nuclear
     -   - - -        -----        -------
     0   0 0 0     -0.000000      2.000000

     1   1 0 0      0.000000      0.000000
     1   0 1 0     -0.000000      0.000000
     1   0 0 1      0.000000      0.000000

     2   2 0 0     -1.510269      0.000000
     2   1 1 0      0.000000      0.000000
     2   1 0 1      0.000000      0.000000
     2   0 2 0     -1.510269      0.000000
     2   0 1 1      0.000000      0.000000
     2   0 0 2     -1.089140      1.033747


  Mulliken analysis of the total density
  --------------------------------------

    Atom       Charge   Shell Charges
 -----------   ------   -------------------------------------------------------
    1 H    1     1.00   0.70  0.29  0.01
    2 H    1     1.00   0.70  0.29  0.01

    Mulliken analysis of the active space density
    ---------------------------------------------

    Atom       Charge   Shell Charges
 -----------   ------   -------------------------------------------------------
    1 H    1     1.00   0.70  0.29  0.01
    2 H    1     1.00   0.70  0.29  0.01

 Parallel integral file used       1 records with       0 large values

                              NWChem Gradients Module
                              -----------------------


  Using symmetry
HVD: EAF_MAX_FILES: 1024
HVD: eaf_open: 0: ./mcscf_h2_dat.mcpdm


                         MCSCF ENERGY GRADIENTS

    atom               coordinates                        gradient
                 x          y          z           x          y          z
   1 h       0.000000   0.000000  -0.718939    0.000000   0.000000   0.000001
   2 h       0.000000   0.000000   0.718939    0.000000   0.000000  -0.000001

                 ----------------------------------------
                 |  Time  |  1-e(secs)   |  2-e(secs)   |
                 ----------------------------------------
                 |  CPU   |       0.00   |       0.00   |
                 ----------------------------------------
                 |  WALL  |       0.00   |       0.00   |
                 ----------------------------------------
  no constraints, skipping    0.0000000000000000     

@ Step       Energy      Delta E   Gmax     Grms     Xrms     Xmax   Walltime
@ ---- ---------------- -------- -------- -------- -------- -------- --------
@    0      -1.16367298  0.0D+00  0.00000  0.00000  0.00000  0.00000      0.2
                                     ok       ok       ok       ok  



                                Z-matrix (autoz)
                                -------- 

 Units are Angstrom for bonds and degrees for angles

      Type          Name      I     J     K     L     M      Value     Gradient
      ----------- --------  ----- ----- ----- ----- ----- ---------- ----------
    1 Stretch                  1     2                       0.76089   -0.00000

  no constraints, skipping    0.0000000000000000     
  no constraints, skipping    0.0000000000000000     
  no constraints, skipping    0.0000000000000000     

                            NWChem Direct MCSCF Module
                            --------------------------


     -----------------------------------
       Basis functions:             10
       Inactive shells:              0
       Active shells:               10
       Active electrons:             2
       Symmetry:                    ag      
       Multiplicity:                 1
       Orbital rotations:            0
     -----------------------------------

     -----------------------------------
       E2 extrapolation:             F
       Conjugacy:                    T
       Micro CI relax:               T
       Canonical orbitals:           T
       Maximum iterations:          20
       Converge threshold:    1.00E-04
       Conjugacy resets:            20
       Initial levelshift:        0.10
     -----------------------------------

   input molecular orbitals = ./mcscf_h2_dat.movecs
  output molecular orbtials = ./mcscf_h2_dat.movecs

       No. of determinants:           100


  Starting Orbital Energies
    -0.586177     1.936587     3.488682     0.484333     2.029325     1.290703
     2.029325     0.193400     1.290703     0.922630

  Orbital Symmetry Irreps
ag   ag   ag   b1u  b1u  b1u  b2g  b2u  b3g  b3u 
HVD: EAF_MAX_FILES: 1024
HVD: eaf_open: 0: ./mcscf_h2_dat.moao.0
  !! warning: moints 2x:                     1  MO vectors were symmetry contaminated
HVD: EOF_Open: 0 ./mcscf_h2_dat.moao.0 0
HVD: EAF_MAX_FILES: 1024
HVD: eaf_open: 1: ./mcscf_h2_dat.junk.0

 #quartets = 1.560D+02 #integrals = 4.020D+02 #direct =  0.0% #cached =100.0%


 Integral file          = ./mcscf_h2_dat.aoints.0
 Record size in doubles =    65536    No. of integs per rec  =    43688
 Max. records in memory =        3    Max. records in file   = ********
 No. of bits per label  =        8    No. of bits per value  =       64




          %%%%% MacroIteration   1 %%%%%

 HVD: begin file_write_ga: ./mcscf_h2_dat.civec                                                                                                                                                                                                                                           
HVD: EOF_Open: 0 ./mcscf_h2_dat.moao.0 0
HVD: EAF_MAX_FILES: 1024
HVD: eaf_open: 1: ./mcscf_h2_dat.civec
 HVD: end   file_write_ga

          Number of sigma calls:       17
                       o<<<<< (aa):             0.00
                       o<<<<< (bb):             0.00
                       o<<<<< (ab):             0.00
                       o<<<<< (total)           0.00
                       o<<<<< (aa) ff           0.00
                       o<<<<< (aa) gop          0.00
                       o<<<<< (aa) dot          0.00
                       o<<<<< (ab) str          0.00
                       o<<<<< (ab) gath         0.00
                       o<<<<< (ab) dotab        0.00
                       o<<<<< (ab) scat         0.00
                       o<<<<< (ab) sync         0.00
                       o<<<<< Density           0.00
                       o<<<<< Density one       0.00
                       o<<<<< Density two       0.00
                       o<<<<< Density ab        0.00
                       o<<<<< Spin adapt        0.00
                       o<<<<< Symm adapt        0.00

                       o<<<<< (ab) max sync:      0.00

           >>>| Valence CI:             -1.859141181224
           >>>| MCSCF energy:           -1.163672981198
           >>>| Gradient norm:          0.000000000D+00




     ==============================
            MCSCF Converged
     ==============================



          Canonical Eigenvalues

              1      
    1   -0.5862
    2    1.9366
    3    3.4887
    4    0.4843
    5    2.0293
    6    1.2907
    7    2.0293
    8    0.1934
    9    1.2907
   10    0.9226

 HVD: begin file_read_ga: ./mcscf_h2_dat.civec                                                                                                                                                                                                                                           
HVD: EOF_Open: 0 ./mcscf_h2_dat.moao.0 0
HVD: EAF_MAX_FILES: 1024
HVD: eaf_open: 1: ./mcscf_h2_dat.civec
 HVD: end   file_read_ga

          Converged CI vector

   Index           Coefficient          Config. Occupation
         1          0.99126634          1  1
        12         -0.05530827          2  2
        34         -0.10432128          4  4
        78         -0.03938290          8  8
       100         -0.03938294         10 10
 HVD: begin file_write_ga: ./mcscf_h2_dat.civec                                                                                                                                                                                                                                           
HVD: EOF_Open: 0 ./mcscf_h2_dat.moao.0 0
HVD: EAF_MAX_FILES: 1024
HVD: eaf_open: 1: ./mcscf_h2_dat.civec
 HVD: end   file_write_ga

          Number of sigma calls:        1
                       o<<<<< (aa):             0.00
                       o<<<<< (bb):             0.00
                       o<<<<< (ab):             0.00
                       o<<<<< (total)           0.00
                       o<<<<< (aa) ff           0.00
                       o<<<<< (aa) gop          0.00
                       o<<<<< (aa) dot          0.00
                       o<<<<< (ab) str          0.00
                       o<<<<< (ab) gath         0.00
                       o<<<<< (ab) dotab        0.00
                       o<<<<< (ab) scat         0.00
                       o<<<<< (ab) sync         0.00
                       o<<<<< Density           0.00
                       o<<<<< Density one       0.00
                       o<<<<< Density two       0.00
                       o<<<<< Density ab        0.00
                       o<<<<< Spin adapt        0.00
                       o<<<<< Symm adapt        0.00

                       o<<<<< (ab) max sync:      0.00



          Natural orbital occupation numbers

              1      
    1    1.9652
    2    0.0218
    3    0.0061
    4    0.0031
    5    0.0031
    6    0.0002
    7    0.0002
    8    0.0002
    9    0.0002
   10    0.0000

  !! warning: moints 2x:                     1  MO vectors were symmetry contaminated
 HVD: begin file_write_ga: ./mcscf_h2_dat.civec                                                                                                                                                                                                                                           
HVD: EOF_Open: 0 ./mcscf_h2_dat.moao.0 0
HVD: EAF_MAX_FILES: 1024
HVD: eaf_open: 1: ./mcscf_h2_dat.civec
 HVD: end   file_write_ga

          Number of sigma calls:       21
                       o<<<<< (aa):             0.00
                       o<<<<< (bb):             0.00
                       o<<<<< (ab):             0.00
                       o<<<<< (total)           0.00
                       o<<<<< (aa) ff           0.00
                       o<<<<< (aa) gop          0.00
                       o<<<<< (aa) dot          0.00
                       o<<<<< (ab) str          0.00
                       o<<<<< (ab) gath         0.00
                       o<<<<< (ab) dotab        0.00
                       o<<<<< (ab) scat         0.00
                       o<<<<< (ab) sync         0.00
                       o<<<<< Density           0.00
                       o<<<<< Density one       0.00
                       o<<<<< Density two       0.00
                       o<<<<< Density ab        0.00
                       o<<<<< Spin adapt        0.00
                       o<<<<< Symm adapt        0.00

                       o<<<<< (ab) max sync:      0.00


       Final MCSCF results 
       ------------------- 

       Total MCSCF energy =     -1.163672981198
            Gradient norm =      0.0D+00

    CPU time for solution =      0.1s
   Wall time for solution =      0.1s



                        Analysis of MCSCF natural orbitals
                        ----------------------------------

 Vector    1  Occ=1.965218D+00  E=-5.861768D-01  Symmetry=ag
              MO Center=  0.0D+00,  0.0D+00,  8.7D-19, r^2= 7.2D-01
   Bfn.  Coefficient  Atom+Function         Bfn.  Coefficient  Atom+Function  
  ----- ------------  ---------------      ----- ------------  ---------------
     1      0.407596  1 H  s                  6      0.407596  2 H  s          
     2      0.173111  1 H  s                  7      0.173111  2 H  s          

 Vector    2  Occ=2.176586D-02  E= 1.936587D+00  Symmetry=b1u
              MO Center=  6.7D-30, -4.5D-30,  4.3D-18, r^2= 7.4D-01
   Bfn.  Coefficient  Atom+Function         Bfn.  Coefficient  Atom+Function  
  ----- ------------  ---------------      ----- ------------  ---------------
     1      0.952400  1 H  s                  6     -0.952400  2 H  s          
     2      0.248327  1 H  s                  7     -0.248327  2 H  s          

 Vector    3  Occ=6.118010D-03  E= 3.488682D+00  Symmetry=ag
              MO Center=  5.2D-20, -2.0D-21,  7.0D-16, r^2= 1.9D+00
   Bfn.  Coefficient  Atom+Function         Bfn.  Coefficient  Atom+Function  
  ----- ------------  ---------------      ----- ------------  ---------------
     2      0.614549  1 H  s                  7      0.614549  2 H  s          
     1     -0.519674  1 H  s                  6     -0.519674  2 H  s          
     5     -0.250105  1 H  pz                10      0.250105  2 H  pz         

 Vector    4  Occ=3.102032D-03  E= 4.843334D-01  Symmetry=b3u
              MO Center=  1.4D-19,  1.5D-61,  1.2D-36, r^2= 5.8D-01
   Bfn.  Coefficient  Atom+Function         Bfn.  Coefficient  Atom+Function  
  ----- ------------  ---------------      ----- ------------  ---------------
     3      0.582886  1 H  px                 8      0.582886  2 H  px         

 Vector    5  Occ=3.102026D-03  E= 2.029325D+00  Symmetry=b2u
              MO Center= -2.1D-57, -8.9D-21, -5.6D-17, r^2= 5.8D-01
   Bfn.  Coefficient  Atom+Function         Bfn.  Coefficient  Atom+Function  
  ----- ------------  ---------------      ----- ------------  ---------------
     4      0.582886  1 H  py                 9      0.582886  2 H  py         

 Vector    6  Occ=2.066960D-04  E= 1.290703D+00  Symmetry=ag
              MO Center= -1.9D-19,  1.1D-20, -2.2D-16, r^2= 1.2D+00
   Bfn.  Coefficient  Atom+Function         Bfn.  Coefficient  Atom+Function  
  ----- ------------  ---------------      ----- ------------  ---------------
     5     -0.669203  1 H  pz                10      0.669203  2 H  pz         
     1      0.646368  1 H  s                  6      0.646368  2 H  s          
     2     -0.448335  1 H  s                  7     -0.448335  2 H  s          

 Vector    7  Occ=1.592405D-04  E= 2.029325D+00  Symmetry=b1u
              MO Center=  0.0D+00,  0.0D+00,  5.6D-17, r^2= 2.1D+00
   Bfn.  Coefficient  Atom+Function         Bfn.  Coefficient  Atom+Function  
  ----- ------------  ---------------      ----- ------------  ---------------
     1      1.880746  1 H  s                  6     -1.880746  2 H  s          
     2     -1.857076  1 H  s                  7      1.857076  2 H  s          
     5      1.054235  1 H  pz                10      1.054235  2 H  pz         

 Vector    8  Occ=1.574812D-04  E= 1.934002D-01  Symmetry=b2g
              MO Center= -6.7D-30, -9.9D-55,  4.2D-44, r^2= 7.6D-01
   Bfn.  Coefficient  Atom+Function         Bfn.  Coefficient  Atom+Function  
  ----- ------------  ---------------      ----- ------------  ---------------
     3      0.972793  1 H  px                 8     -0.972793  2 H  px         

 Vector    9  Occ=1.574809D-04  E= 1.290703D+00  Symmetry=b3g
              MO Center=  7.2D-53,  4.5D-30,  1.2D-41, r^2= 7.6D-01
   Bfn.  Coefficient  Atom+Function         Bfn.  Coefficient  Atom+Function  
  ----- ------------  ---------------      ----- ------------  ---------------
     4      0.972793  1 H  py                 9     -0.972793  2 H  py         

 Vector   10  Occ=1.324425D-05  E= 9.226304D-01  Symmetry=b1u
              MO Center=  6.2D-37, -7.3D-37,  8.3D-16, r^2= 2.1D+00
   Bfn.  Coefficient  Atom+Function         Bfn.  Coefficient  Atom+Function  
  ----- ------------  ---------------      ----- ------------  ---------------
     5      1.708232  1 H  pz                10      1.708232  2 H  pz         
     2      1.634151  1 H  s                  7     -1.634151  2 H  s          
     1      1.532587  1 H  s                  6     -1.532587  2 H  s          

HVD: EOF_Open: 0 ./mcscf_h2_dat.moao.0 0
HVD: EAF_MAX_FILES: 1024
HVD: eaf_open: 1: ./mcscf_h2_dat.mcpdm

 Wrote Lagrangian and 1- and 2-particle density matrices to ./mcscf_h2_dat.mcpdm


     Multipole analysis of the density
     ---------------------------------

     L   x y z        total        nuclear
     -   - - -        -----        -------
     0   0 0 0     -0.000000      2.000000

     1   1 0 0     -0.000000      0.000000
     1   0 1 0      0.000000      0.000000
     1   0 0 1      0.000000      0.000000

     2   2 0 0     -1.510270      0.000000
     2   1 1 0     -0.000000      0.000000
     2   1 0 1      0.000000      0.000000
     2   0 2 0     -1.510270      0.000000
     2   0 1 1      0.000000      0.000000
     2   0 0 2     -1.089141      1.033750


  Mulliken analysis of the total density
  --------------------------------------

    Atom       Charge   Shell Charges
 -----------   ------   -------------------------------------------------------
    1 H    1     1.00   0.70  0.29  0.01
    2 H    1     1.00   0.70  0.29  0.01

    Mulliken analysis of the active space density
    ---------------------------------------------

    Atom       Charge   Shell Charges
 -----------   ------   -------------------------------------------------------
    1 H    1     1.00   0.70  0.29  0.01
    2 H    1     1.00   0.70  0.29  0.01

 Parallel integral file used       1 records with       0 large values

 Line search: 
     step= 1.00 grad=-1.6D-12 hess= 9.5D-13 energy=     -1.163673 mode=accept  
 new step= 1.00                   predicted energy=     -1.163673
  no constraints, skipping    0.0000000000000000     
  no constraints, skipping    0.0000000000000000     
  no constraints, skipping    0.0000000000000000     

          --------
          Step   1
          --------


                         Geometry "geometry" -> "geometry"
                         ---------------------------------

 Output coordinates in angstroms (scale by  1.889725989 to convert to a.u.)

  No.       Tag          Charge          X              Y              Z
 ---- ---------------- ---------- -------------- -------------- --------------
    1 h                    1.0000     0.00000000     0.00000000    -0.38044676
    2 h                    1.0000     0.00000000     0.00000000     0.38044676

      Atomic Mass 
      ----------- 

      h                  1.007825


 Effective nuclear repulsion energy (a.u.)       0.6954682000

            Nuclear Dipole moment (a.u.) 
            ----------------------------
        X                 Y               Z
 ---------------- ---------------- ----------------
     0.0000000000     0.0000000000     0.0000000000

      Symmetry information
      --------------------

 Group name             D2h       
 Group number             26
 Group order               8
 No. of unique centers     1

      Symmetry unique atoms

     1


                            NWChem Direct MCSCF Module
                            --------------------------


     -----------------------------------
       Basis functions:             10
       Inactive shells:              0
       Active shells:               10
       Active electrons:             2
       Symmetry:                    ag      
       Multiplicity:                 1
       Orbital rotations:            0
     -----------------------------------

     -----------------------------------
       E2 extrapolation:             F
       Conjugacy:                    T
       Micro CI relax:               T
       Canonical orbitals:           T
       Maximum iterations:          20
       Converge threshold:    1.00E-04
       Conjugacy resets:            20
       Initial levelshift:        0.10
     -----------------------------------

  The MCSCF is already converged 

       Total MCSCF energy =     -1.163672981198

                              NWChem Gradients Module
                              -----------------------


  Using symmetry
HVD: EAF_MAX_FILES: 1024
HVD: eaf_open: 0: ./mcscf_h2_dat.mcpdm


                         MCSCF ENERGY GRADIENTS

    atom               coordinates                        gradient
                 x          y          z           x          y          z
   1 h       0.000000   0.000000  -0.718940    0.000000   0.000000  -0.000000
   2 h       0.000000   0.000000   0.718940   -0.000000   0.000000   0.000000

                 ----------------------------------------
                 |  Time  |  1-e(secs)   |  2-e(secs)   |
                 ----------------------------------------
                 |  CPU   |       0.00   |       0.00   |
                 ----------------------------------------
                 |  WALL  |       0.00   |       0.00   |
                 ----------------------------------------
  no constraints, skipping    0.0000000000000000     

  Step       Energy      Delta E   Gmax     Grms     Xrms     Xmax   Walltime
  ---- ---------------- -------- -------- -------- -------- -------- --------
@    1      -1.16367298 -6.7D-13  0.00000  0.00000  0.00000  0.00000      0.5
                                     ok       ok       ok       ok  



                                Z-matrix (autoz)
                                -------- 

 Units are Angstrom for bonds and degrees for angles

      Type          Name      I     J     K     L     M      Value     Gradient
      ----------- --------  ----- ----- ----- ----- ----- ---------- ----------
    1 Stretch                  1     2                       0.76089    0.00000


      ----------------------
      Optimization converged
      ----------------------


  Step       Energy      Delta E   Gmax     Grms     Xrms     Xmax   Walltime
  ---- ---------------- -------- -------- -------- -------- -------- --------
@    1      -1.16367298 -6.7D-13  0.00000  0.00000  0.00000  0.00000      0.5
                                     ok       ok       ok       ok  



                                Z-matrix (autoz)
                                -------- 

 Units are Angstrom for bonds and degrees for angles

      Type          Name      I     J     K     L     M      Value     Gradient
      ----------- --------  ----- ----- ----- ----- ----- ---------- ----------
    1 Stretch                  1     2                       0.76089    0.00000



                         Geometry "geometry" -> "geometry"
                         ---------------------------------

 Output coordinates in angstroms (scale by  1.889725989 to convert to a.u.)

  No.       Tag          Charge          X              Y              Z
 ---- ---------------- ---------- -------------- -------------- --------------
    1 h                    1.0000     0.00000000     0.00000000    -0.38044676
    2 h                    1.0000     0.00000000     0.00000000     0.38044676

      Atomic Mass 
      ----------- 

      h                  1.007825


 Effective nuclear repulsion energy (a.u.)       0.6954682000

            Nuclear Dipole moment (a.u.) 
            ----------------------------
        X                 Y               Z
 ---------------- ---------------- ----------------
     0.0000000000     0.0000000000     0.0000000000

      Symmetry information
      --------------------

 Group name             D2h       
 Group number             26
 Group order               8
 No. of unique centers     1

      Symmetry unique atoms

     1


                Final and change from initial internal coordinates
                --------------------------------------------------



                                Z-matrix (autoz)
                                -------- 

 Units are Angstrom for bonds and degrees for angles

      Type          Name      I     J     K     L     M      Value       Change
      ----------- --------  ----- ----- ----- ----- ----- ---------- ----------
    1 Stretch                  1     2                       0.76089    0.00000


 Task  times  cpu:        0.4s     wall:        0.4s


                                NWChem Input Module
                                -------------------


 Summary of allocated global arrays
-----------------------------------
  No active global arrays


MA_summarize_allocated_blocks: starting scan ...
MA_summarize_allocated_blocks: scan completed: 0 heap blocks, 0 stack blocks
MA usage statistics:

	allocation statistics:
					      heap	     stack
					      ----	     -----
	current number of blocks	         0	         0
	maximum number of blocks	        21	        34
	current total bytes		         0	         0
	maximum total bytes		   1644216	  22509176
	maximum total K-bytes		      1645	     22510
	maximum total M-bytes		         2	        23


                                     CITATION
                                     --------
                Please cite the following reference when publishing
                           results obtained with NWChem:

          E. Apra, E. J. Bylaska, W. A. de Jong, N. Govind, K. Kowalski,
       T. P. Straatsma, M. Valiev, H. J. J. van Dam, Y. Alexeev, J. Anchell,
       V. Anisimov, F. W. Aquino, R. Atta-Fynn, J. Autschbach, N. P. Bauman,
     J. C. Becca, D. E. Bernholdt, K. Bhaskaran-Nair, S. Bogatko, P. Borowski,
         J. Boschen, J. Brabec, A. Bruner, E. Cauet, Y. Chen, G. N. Chuev,
      C. J. Cramer, J. Daily, M. J. O. Deegan, T. H. Dunning Jr., M. Dupuis,
   K. G. Dyall, G. I. Fann, S. A. Fischer, A. Fonari, H. Fruchtl, L. Gagliardi,
      J. Garza, N. Gawande, S. Ghosh, K. Glaesemann, A. W. Gotz, J. Hammond,
       V. Helms, E. D. Hermes, K. Hirao, S. Hirata, M. Jacquelin, L. Jensen,
   B. G. Johnson, H. Jonsson, R. A. Kendall, M. Klemm, R. Kobayashi, V. Konkov,
      S. Krishnamoorthy, M. Krishnan, Z. Lin, R. D. Lins, R. J. Littlefield,
      A. J. Logsdail, K. Lopata, W. Ma, A. V. Marenich, J. Martin del Campo,
   D. Mejia-Rodriguez, J. E. Moore, J. M. Mullin, T. Nakajima, D. R. Nascimento,
    J. A. Nichols, P. J. Nichols, J. Nieplocha, A. Otero-de-la-Roza, B. Palmer,
    A. Panyala, T. Pirojsirikul, B. Peng, R. Peverati, J. Pittner, L. Pollack,
   R. M. Richard, P. Sadayappan, G. C. Schatz, W. A. Shelton, D. W. Silverstein,
   D. M. A. Smith, T. A. Soares, D. Song, M. Swart, H. L. Taylor, G. S. Thomas,
            V. Tipparaju, D. G. Truhlar, K. Tsemekhman, T. Van Voorhis,
      A. Vazquez-Mayagoitia, P. Verma, O. Villa, A. Vishnu, K. D. Vogiatzis,
        D. Wang, J. H. Weare, M. J. Williamson, T. L. Windus, K. Wolinski,
        A. T. Wong, Q. Wu, C. Yang, Q. Yu, M. Zacharias, Z. Zhang, Y. Zhao,
                                and R. J. Harrison
                        "NWChem: Past, present, and future
                         J. Chem. Phys. 152, 184102 (2020)
                               doi:10.1063/5.0004997

                                      AUTHORS
                                      -------
  E. Apra, E. J. Bylaska, N. Govind, K. Kowalski, M. Valiev, D. Mejia-Rodriguez,
       A. Kunitsa, N. P. Bauman, A. Panyala, W. A. de Jong, T. P. Straatsma,
   H. J. J. van Dam, D. Wang, T. L. Windus, J. Hammond, J. Autschbach, A. Woods,
    K. Bhaskaran-Nair, J. Brabec, K. Lopata, S. A. Fischer, S. Krishnamoorthy,
     M. Jacquelin, W. Ma, M. Klemm, O. Villa, Y. Chen, V. Anisimov, F. Aquino,
     S. Hirata, M. T. Hackler, E. Hermes, L. Jensen, J. E. Moore, J. C. Becca,
      V. Konjkov, T. Risthaus, M. Malagoli, A. Marenich, A. Otero-de-la-Roza,
        J. Mullin, P. Nichols, R. Peverati, J. Pittner, Y. Zhao, P.-D. Fan,
        A. Fonari, M. J. Williamson, R. J. Harrison, J. R. Rehr, M. Dupuis,
     D. Silverstein, D. M. A. Smith, J. Nieplocha, V. Tipparaju, M. Krishnan,
     B. E. Van Kuiken, A. Vazquez-Mayagoitia, M. Swart, Q. Wu, T. Van Voorhis,
     A. A. Auer, M. Nooijen, L. D. Crosby, E. Brown, G. Cisneros, G. I. Fann,
   H. Fruchtl, J. Garza, K. Hirao, R. A. Kendall, J. A. Nichols, K. Tsemekhman,
    K. Wolinski, J. Anchell, D. E. Bernholdt, P. Borowski, T. Clark, D. Clerc,
   H. Dachsel, M. J. O. Deegan, K. Dyall, D. Elwood, E. Glendening, M. Gutowski,
   A. C. Hess, J. Jaffe, B. G. Johnson, J. Ju, R. Kobayashi, R. Kutteh, Z. Lin,
   R. Littlefield, X. Long, B. Meng, T. Nakajima, S. Niu, L. Pollack, M. Rosing,
   K. Glaesemann, G. Sandrone, M. Stave, H. Taylor, G. Thomas, J. H. van Lenthe,
                               A. T. Wong, Z. Zhang.

 Total times  cpu:        0.6s     wall:        0.6s
