 argument  1 = noft_h2_sym.nw



============================== echo of input deck ==============================
echo
start noft_h2_dat

scratch_dir .
permanent_dir .

geometry units angstrom
  symmetry d2h
  h 0.0 0.0 -0.38044621
  h 0.0 0.0  0.38044621
end

basis spherical
  * library cc-pvdz
end

scf
  vectors input atomic output noft_h2_dat.movecs
end

noft
  temperature 0.0
  restricted
  pairrotation
  symmetrize T
  vectors input noft_h2_dat.movecs output noft_h2_dat.movecs
end

task scf  energy
task noft energy
================================================================================


                                         
                                         


             Northwest Computational Chemistry Package (NWChem) 7.2.1
             --------------------------------------------------------


                    Environmental Molecular Sciences Laboratory
                       Pacific Northwest National Laboratory
                                Richland, WA 99352

                              Copyright (c) 1994-2022
                       Pacific Northwest National Laboratory
                            Battelle Memorial Institute

             NWChem is an open-source computational chemistry package
                        distributed under the terms of the
                      Educational Community License (ECL) 2.0
             A copy of the license is included with this distribution
                              in the LICENSE.TXT file

                                  ACKNOWLEDGMENT
                                  --------------

            This software and its documentation were developed at the
            EMSL at Pacific Northwest National Laboratory, a multiprogram
            national laboratory, operated for the U.S. Department of Energy
            by Battelle under Contract Number DE-AC05-76RL01830. Support
            for this work was provided by the Department of Energy Office
            of Biological and Environmental Research, Office of Basic
            Energy Sciences, and the Office of Advanced Scientific Computing.


           Job information
           ---------------

    hostname        = lima-apptainer-al9
    program         = ../../../bin/LINUX64/nwchem
    date            = Sun Apr 20 15:00:14 2025

    compiled        = Sun_Apr_20_14:53:42_2025
    source          = /Users/hubertusvandam/Documents/nwchem-1-noft.nosync
    nwchem branch   = 7.2.1
    nwchem revision = nwchem_on_git-5531-ge8376a4b81
    ga revision     = 5.8.0
    use scalapack   = F
    input           = noft_h2_sym.nw
    prefix          = noft_h2_dat.
    data base       = ./noft_h2_dat.db
    status          = startup
    nproc           =        1
    time left       =     -1s



           Memory information
           ------------------

    heap     =     26214398 doubles =      200.0 Mbytes
    stack    =     26214395 doubles =      200.0 Mbytes
    global   =     52428800 doubles =      400.0 Mbytes (distinct from heap & stack)
    total    =    104857593 doubles =      800.0 Mbytes
    verify   = yes
    hardfail = no 


           Directory information
           ---------------------

  0 permanent = .
  0 scratch   = .




                                NWChem Input Module
                                -------------------



 Scaling coordinates for geometry "geometry" by  1.889725989
 (inverse scale =  0.529177249)

 Turning off AUTOSYM since
 SYMMETRY directive was detected!


          ------
          auto-z
          ------
  no constraints, skipping    0.0000000000000000     
  no constraints, skipping    0.0000000000000000     


                             Geometry "geometry" -> ""
                             -------------------------

 Output coordinates in angstroms (scale by  1.889725989 to convert to a.u.)

  No.       Tag          Charge          X              Y              Z
 ---- ---------------- ---------- -------------- -------------- --------------
    1 h                    1.0000     0.00000000     0.00000000    -0.38044621
    2 h                    1.0000     0.00000000     0.00000000     0.38044621

      Atomic Mass 
      ----------- 

      h                  1.007825


 Effective nuclear repulsion energy (a.u.)       0.6954692084

            Nuclear Dipole moment (a.u.) 
            ----------------------------
        X                 Y               Z
 ---------------- ---------------- ----------------
     0.0000000000     0.0000000000     0.0000000000

      Symmetry information
      --------------------

 Group name             D2h       
 Group number             26
 Group order               8
 No. of unique centers     1

      Symmetry unique atoms

     1



                                Z-matrix (autoz)
                                -------- 

 Units are Angstrom for bonds and degrees for angles

      Type          Name      I     J     K     L     M      Value
      ----------- --------  ----- ----- ----- ----- ----- ----------
    1 Stretch                  1     2                       0.76089


            XYZ format geometry
            -------------------
     2
 geometry
 h                     0.00000000     0.00000000    -0.38044621
 h                     0.00000000     0.00000000     0.38044621



 Summary of "ao basis" -> "" (spherical)
 ------------------------------------------------------------------------------
       Tag                 Description            Shells   Functions and Types
 ---------------- ------------------------------  ------  ---------------------
 *                          cc-pvdz                   on all atoms 


                      Basis "ao basis" -> "ao basis" (spherical)
                      -----
  h (Hydrogen)
  ------------
            Exponent  Coefficients 
       -------------- ---------------------------------------------------------
  1 S  1.30100000E+01  0.019685
  1 S  1.96200000E+00  0.137977
  1 S  4.44600000E-01  0.478148

  2 S  1.22000000E-01  1.000000

  3 P  7.27000000E-01  1.000000



 Summary of "ao basis" -> "ao basis" (spherical)
 ------------------------------------------------------------------------------
       Tag                 Description            Shells   Functions and Types
 ---------------- ------------------------------  ------  ---------------------
 h                          cc-pvdz                  3        5   2s1p


                                 NWChem SCF Module
                                 -----------------



  ao basis        = "ao basis"
  functions       =    10
  atoms           =     2
  closed shells   =     1
  open shells     =     0
  charge          =   0.00
  wavefunction    = RHF 
  input vectors   = atomic
  output vectors  = ./noft_h2_dat.movecs
  use symmetry    = T
  symmetry adapt  = T


 Summary of "ao basis" -> "ao basis" (spherical)
 ------------------------------------------------------------------------------
       Tag                 Description            Shells   Functions and Types
 ---------------- ------------------------------  ------  ---------------------
 h                          cc-pvdz                  3        5   2s1p


      Symmetry analysis of basis
      --------------------------

        ag          3
        au          0
        b1g         0
        b1u         3
        b2g         1
        b2u         1
        b3g         1
        b3u         1


 Forming initial guess at       0.1s


      Superposition of Atomic Density Guess
      -------------------------------------

 Sum of atomic energies:          -0.99855800

      Non-variational initial energy
      ------------------------------

 Total energy =      -0.848623
 1-e energy   =      -2.198859
 2-e energy   =       0.654766
 HOMO         =      -0.573389
 LUMO         =       0.137948


      Symmetry analysis of molecular orbitals - initial
      -------------------------------------------------


 !! scf_movecs_sym_adapt:    4 vectors were symmetry contaminated

  Symmetry fudging

 !! scf_movecs_sym_adapt:    4 vectors were symmetry contaminated

  Numbering of irreducible representations: 

     1 ag          2 au          3 b1g         4 b1u         5 b2g     
     6 b2u         7 b3g         8 b3u     

  Orbital symmetries:

     1 ag          2 b1u         3 ag          4 b1u         5 b3u     
     6 b2u         7 ag          8 b3g         9 b2g        10 b1u     


 Starting SCF solution at       0.1s



 ----------------------------------------------
         Quadratically convergent ROHF

 Convergence threshold     :          1.000E-04
 Maximum no. of iterations :           30
 Final Fock-matrix accuracy:          1.000E-07
 ----------------------------------------------

 HVD: begin file_write_ga: ./noft_h2_dat.cfock                                                                                                                                                                                                                                            
HVD: EAF_MAX_FILES: 1024
HVD: eaf_open: 0: ./noft_h2_dat.cfock
 HVD: end   file_write_ga

              iter       energy          gnorm     gmax       time
             ----- ------------------- --------- --------- --------
                 1       -1.1272509284  1.02D-01  9.70D-02      0.1
 HVD: begin file_write_ga: ./noft_h2_dat.cfock                                                                                                                                                                                                                                            
HVD: EAF_MAX_FILES: 1024
HVD: eaf_open: 0: ./noft_h2_dat.cfock
 HVD: end   file_write_ga
                 2       -1.1286276268  4.91D-03  4.41D-03      0.1
 HVD: begin file_write_ga: ./noft_h2_dat.cfock                                                                                                                                                                                                                                            
HVD: EAF_MAX_FILES: 1024
HVD: eaf_open: 0: ./noft_h2_dat.cfock
 HVD: end   file_write_ga
                 3       -1.1286294916  5.02D-07  4.46D-07      0.1


       Final RHF  results 
       ------------------ 

         Total SCF energy =     -1.128629491594
      One-electron energy =     -2.475843808619
      Two-electron energy =      0.651745108645
 Nuclear repulsion energy =      0.695469208380

        Time for solution =      0.0s



       Symmetry analysis of molecular orbitals - final
       -----------------------------------------------

  Numbering of irreducible representations: 

     1 ag          2 au          3 b1g         4 b1u         5 b2g     
     6 b2u         7 b3g         8 b3u     

  Orbital symmetries:

     1 ag          2 b1u         3 ag          4 b1u         5 b3u     
     6 b2u         7 ag          8 b3g         9 b2g        10 b1u     

             Final eigenvalues
             -----------------

              1      
    1   -0.5862
    2    0.1934
    3    0.4843
    4    0.9226
    5    1.2907
    6    1.2907
    7    1.9366
    8    2.0293
    9    2.0293
   10    3.4887

                       ROHF Final Molecular Orbital Analysis
                       -------------------------------------

 Vector    1  Occ=2.000000D+00  E=-5.861768D-01  Symmetry=ag
              MO Center= -6.2D-18,  1.7D-18, -7.8D-18, r^2= 7.3D-01
   Bfn.  Coefficient  Atom+Function         Bfn.  Coefficient  Atom+Function  
  ----- ------------  ---------------      ----- ------------  ---------------
     1      0.401244  1 H  s                  6      0.401244  2 H  s          
     2      0.178632  1 H  s                  7      0.178632  2 H  s          

 Vector    2  Occ=0.000000D+00  E= 1.934002D-01  Symmetry=b1u
              MO Center=  7.8D-30, -5.2D-30, -5.4D-16, r^2= 2.7D+00
   Bfn.  Coefficient  Atom+Function         Bfn.  Coefficient  Atom+Function  
  ----- ------------  ---------------      ----- ------------  ---------------
     2      1.897312  1 H  s                  7     -1.897312  2 H  s          
     1      0.154108  1 H  s                  6     -0.154108  2 H  s          

 Vector    3  Occ=0.000000D+00  E= 4.843334D-01  Symmetry=ag
              MO Center=  5.8D-35, -1.5D-35,  4.9D-16, r^2= 2.3D+00
   Bfn.  Coefficient  Atom+Function         Bfn.  Coefficient  Atom+Function  
  ----- ------------  ---------------      ----- ------------  ---------------
     2     -0.727074  1 H  s                  7     -0.727074  2 H  s          
     1      0.706594  1 H  s                  6      0.706594  2 H  s          

 Vector    4  Occ=0.000000D+00  E= 9.226304D-01  Symmetry=b1u
              MO Center=  1.2D-35,  1.9D-34, -2.0D-16, r^2= 1.6D+00
   Bfn.  Coefficient  Atom+Function         Bfn.  Coefficient  Atom+Function  
  ----- ------------  ---------------      ----- ------------  ---------------
     2      1.604171  1 H  s                  7     -1.604171  2 H  s          
     1     -0.786584  1 H  s                  6      0.786584  2 H  s          
     5      0.392187  1 H  pz                10      0.392187  2 H  pz         

 Vector    5  Occ=0.000000D+00  E= 1.290703D+00  Symmetry=b3u
              MO Center=  6.4D-18,  5.7D-62, -2.8D-36, r^2= 5.8D-01
   Bfn.  Coefficient  Atom+Function         Bfn.  Coefficient  Atom+Function  
  ----- ------------  ---------------      ----- ------------  ---------------
     3      0.582886  1 H  px                 8      0.582886  2 H  px         

 Vector    6  Occ=0.000000D+00  E= 1.290703D+00  Symmetry=b2u
              MO Center= -3.3D-53, -1.7D-18, -5.6D-17, r^2= 5.8D-01
   Bfn.  Coefficient  Atom+Function         Bfn.  Coefficient  Atom+Function  
  ----- ------------  ---------------      ----- ------------  ---------------
     4      0.582886  1 H  py                 9      0.582886  2 H  py         

 Vector    7  Occ=0.000000D+00  E= 1.936587D+00  Symmetry=ag
              MO Center= -1.2D-19,  6.4D-21,  0.0D+00, r^2= 8.1D-01
   Bfn.  Coefficient  Atom+Function         Bfn.  Coefficient  Atom+Function  
  ----- ------------  ---------------      ----- ------------  ---------------
     5      0.714165  1 H  pz                10     -0.714165  2 H  pz         
     1     -0.440130  1 H  s                  6     -0.440130  2 H  s          
     2      0.219308  1 H  s                  7      0.219308  2 H  s          

 Vector    8  Occ=0.000000D+00  E= 2.029325D+00  Symmetry=b3g
              MO Center=  1.4D-49,  5.2D-30, -9.5D-38, r^2= 7.6D-01
   Bfn.  Coefficient  Atom+Function         Bfn.  Coefficient  Atom+Function  
  ----- ------------  ---------------      ----- ------------  ---------------
     4      0.972794  1 H  py                 9     -0.972794  2 H  py         

 Vector    9  Occ=0.000000D+00  E= 2.029325D+00  Symmetry=b2g
              MO Center= -7.8D-30, -2.0D-51, -3.5D-40, r^2= 7.6D-01
   Bfn.  Coefficient  Atom+Function         Bfn.  Coefficient  Atom+Function  
  ----- ------------  ---------------      ----- ------------  ---------------
     3      0.972794  1 H  px                 8     -0.972794  2 H  px         

 Vector   10  Occ=0.000000D+00  E= 3.488682D+00  Symmetry=b1u
              MO Center=  8.6D-33, -1.6D-33,  1.1D-16, r^2= 7.0D-01
   Bfn.  Coefficient  Atom+Function         Bfn.  Coefficient  Atom+Function  
  ----- ------------  ---------------      ----- ------------  ---------------
     1      2.480056  1 H  s                  6     -2.480056  2 H  s          
     5      1.968794  1 H  pz                10      1.968794  2 H  pz         


 center of mass
 --------------
 x =   0.00000000 y =   0.00000000 z =   0.00000000

 moments of inertia (a.u.)
 ------------------
           1.041835900058           0.000000000000           0.000000000000
           0.000000000000           1.041835900058           0.000000000000
           0.000000000000           0.000000000000           0.000000000000

  Mulliken analysis of the total density
  --------------------------------------

    Atom       Charge   Shell Charges
 -----------   ------   -------------------------------------------------------
    1 H    1     1.00   0.69  0.30  0.01
    2 H    1     1.00   0.69  0.30  0.01

       Multipole analysis of the density wrt the origin
       ------------------------------------------------

     L   x y z        total         open         nuclear
     -   - - -        -----         ----         -------
     0   0 0 0     -0.000000      0.000000      2.000000

     1   1 0 0      0.000000      0.000000      0.000000
     1   0 1 0     -0.000000      0.000000      0.000000
     1   0 0 1     -0.000000      0.000000      0.000000

     2   2 0 0     -1.535838      0.000000      0.000000
     2   1 1 0      0.000000      0.000000      0.000000
     2   1 0 1      0.000000      0.000000      0.000000
     2   0 2 0     -1.535838      0.000000      0.000000
     2   0 1 1      0.000000      0.000000      0.000000
     2   0 0 2     -1.075129      0.000000      1.033747


 Task  times  cpu:        0.0s     wall:        0.0s


                                NWChem Input Module
                                -------------------



                                NWChem NOFT Module
                                ------------------


                      Basis "ao basis" -> "ao basis" (spherical)
                      -----
  h (Hydrogen)
  ------------
            Exponent  Coefficients 
       -------------- ---------------------------------------------------------
  1 S  1.30100000E+01  0.163548
  1 S  1.96200000E+00  0.277418
  1 S  4.44600000E-01  0.315749

  2 S  1.22000000E-01  0.147123

  3 P  7.27000000E-01  0.956881



                         Geometry "geometry" -> "geometry"
                         ---------------------------------

 Output coordinates in angstroms (scale by  1.889725989 to convert to a.u.)

  No.       Tag          Charge          X              Y              Z
 ---- ---------------- ---------- -------------- -------------- --------------
    1 h                    1.0000     0.00000000     0.00000000    -0.38044621
    2 h                    1.0000     0.00000000     0.00000000     0.38044621

      Atomic Mass 
      ----------- 

      h                  1.007825


 Effective nuclear repulsion energy (a.u.)       0.6954692084

            Nuclear Dipole moment (a.u.) 
            ----------------------------
        X                 Y               Z
 ---------------- ---------------- ----------------
     0.0000000000     0.0000000000     0.0000000000

      Symmetry information
      --------------------

 Group name             D2h       
 Group number             26
 Group order               8
 No. of unique centers     1

      Symmetry unique atoms

     1



                                Z-matrix (autoz)
                                -------- 

 Units are Angstrom for bonds and degrees for angles

      Type          Name      I     J     K     L     M      Value
      ----------- --------  ----- ----- ----- ----- ----- ----------
    1 Stretch                  1     2                       0.76089

Vector filenames
================

Inputs:

orthogonal: ./noft_h2_dat.svecs
orbitals  : ./noft_h2_dat.mvecs
tilde     : ./noft_h2_dat.tvecs
movecs    : ./noft_h2_dat.movecs

Outputs:

orthogonal: ./noft_h2_dat.svecs
orbitals  : ./noft_h2_dat.mvecs
tilde     : ./noft_h2_dat.tvecs
movecs    : ./noft_h2_dat.movecs

 nwchem basis set
 ics=  1 ib=  0 nat=  1 shz=  1 gc=  0 ie=  3 lcf=  1 fcf=  0 type= 1
 ics=  2 ib=  3 nat=  1 shz=  1 gc=  0 ie=  4 lcf=  2 fcf=  1 type= 1
 ics=  3 ib=  4 nat=  1 shz=  3 gc=  0 ie=  5 lcf=  5 fcf=  2 type= 2
 ics=  4 ib=  5 nat=  2 shz=  1 gc=  0 ie=  8 lcf=  6 fcf=  5 type= 1
 ics=  5 ib=  8 nat=  2 shz=  1 gc=  0 ie=  9 lcf=  7 fcf=  6 type= 1
 ics=  6 ib=  9 nat=  2 shz=  3 gc=  0 ie= 10 lcf= 10 fcf=  7 type= 2
 texas basis set
 ics=  1 ib=  0 nat=  1 shz=  1 gc=  0 ie=  3 lcf=  1 fcf=  0 type= 1
 ics=  2 ib=  5 nat=  2 shz=  1 gc=  0 ie=  8 lcf=  2 fcf=  1 type= 1
 ics=  3 ib=  3 nat=  1 shz=  1 gc=  0 ie=  4 lcf=  3 fcf=  2 type= 1
 ics=  4 ib=  8 nat=  2 shz=  1 gc=  0 ie=  9 lcf=  4 fcf=  3 type= 1
 ics=  5 ib=  4 nat=  1 shz=  3 gc=  0 ie=  5 lcf=  7 fcf=  4 type= 2
 ics=  6 ib=  9 nat=  2 shz=  3 gc=  0 ie= 10 lcf= 10 fcf=  7 type= 2
 translation shell-nwchem -> shell-texas
                    1                    1
                    2                    3
                    3                    5
                    4                    2
                    5                    4
                    6                    6

 global array: sym: S[1:10,1:10],  handle: -989 

            1           2           3           4           5           6  
       ----------- ----------- ----------- ----------- ----------- -----------
   1       1.00000     0.68486     0.00000     0.00000     0.00000     0.55393
   2       0.68486     1.00000     0.00000     0.00000     0.00000     0.55936
   3       0.00000     0.00000     1.00000     0.00000     0.00000     0.00000
   4       0.00000     0.00000     0.00000     1.00000     0.00000     0.00000
   5       0.00000     0.00000     0.00000     0.00000     1.00000     0.53229
   6       0.55393     0.55936     0.00000     0.00000     0.53229     1.00000
   7       0.55936     0.88151     0.00000     0.00000     0.16683     0.68486
   8       0.00000     0.00000     0.47164     0.00000     0.00000     0.00000
   9       0.00000     0.00000     0.00000     0.47164     0.00000     0.00000
  10      -0.53229    -0.16683     0.00000     0.00000    -0.23727    -0.00000

            7           8           9          10  
       ----------- ----------- ----------- -----------
   1       0.55936     0.00000     0.00000    -0.53229
   2       0.88151     0.00000     0.00000    -0.16683
   3       0.00000     0.47164     0.00000     0.00000
   4       0.00000     0.00000     0.47164     0.00000
   5       0.16683     0.00000     0.00000    -0.23727
   6       0.68486     0.00000     0.00000    -0.00000
   7       1.00000     0.00000     0.00000     0.00000
   8       0.00000     1.00000     0.00000     0.00000
   9       0.00000     0.00000     1.00000     0.00000
  10       0.00000     0.00000     0.00000     1.00000
 sym_movecs_adapt: orbital     4 was contaminated
  -1.39D-17  0.00D+00  0.00D+00  0.00D+00  3.11D-02  5.55D-17  9.69D-01  0.00D+00
 sym_movecs_adapt: orbital     5 was contaminated
   0.00D+00  0.00D+00  1.39D-17  0.00D+00  9.69D-01  0.00D+00  3.11D-02  0.00D+00
 sym_movecs_adapt: orbital     8 was contaminated
  -1.39D-17  1.39D-17 -1.39D-17  0.00D+00 -2.78D-17  5.98D-02  5.55D-17  9.40D-01
 sym_movecs_adapt: orbital     9 was contaminated
  -2.78D-17  0.00D+00  0.00D+00  1.39D-17  0.00D+00  9.40D-01  0.00D+00  5.98D-02

 !! scf_movecs_sym_adapt:    4 vectors were symmetry contaminated

  Symmetry fudging

 global array: orthog_mos: overlap[1:10,1:10],  handle: -991 

            1           2           3           4           5           6  
       ----------- ----------- ----------- ----------- ----------- -----------
   1       1.00000     0.68486     0.00000     0.00000     0.00000     0.55393
   2       0.68486     1.00000     0.00000     0.00000     0.00000     0.55936
   3       0.00000     0.00000     1.00000     0.00000     0.00000     0.00000
   4       0.00000     0.00000     0.00000     1.00000     0.00000     0.00000
   5       0.00000     0.00000     0.00000     0.00000     1.00000     0.53229
   6       0.55393     0.55936     0.00000     0.00000     0.53229     1.00000
   7       0.55936     0.88151     0.00000     0.00000     0.16683     0.68486
   8       0.00000     0.00000     0.47164     0.00000     0.00000     0.00000
   9       0.00000     0.00000     0.00000     0.47164     0.00000     0.00000
  10      -0.53229    -0.16683     0.00000     0.00000    -0.23727    -0.00000

            7           8           9          10  
       ----------- ----------- ----------- -----------
   1       0.55936     0.00000     0.00000    -0.53229
   2       0.88151     0.00000     0.00000    -0.16683
   3       0.00000     0.47164     0.00000     0.00000
   4       0.00000     0.00000     0.47164     0.00000
   5       0.16683     0.00000     0.00000    -0.23727
   6       0.68486     0.00000     0.00000    -0.00000
   7       1.00000     0.00000     0.00000     0.00000
   8       0.00000     1.00000     0.00000     0.00000
   9       0.00000     0.00000     1.00000     0.00000
  10       0.00000     0.00000     0.00000     1.00000

 global array: sym: S[1:10,1:10],  handle: -989 

            1           2           3           4           5           6  
       ----------- ----------- ----------- ----------- ----------- -----------
   1       1.00000     0.68486     0.00000     0.00000     0.00000     0.55393
   2       0.68486     1.00000     0.00000     0.00000     0.00000     0.55936
   3       0.00000     0.00000     1.00000     0.00000     0.00000     0.00000
   4       0.00000     0.00000     0.00000     1.00000     0.00000     0.00000
   5       0.00000     0.00000     0.00000     0.00000     1.00000     0.53229
   6       0.55393     0.55936     0.00000     0.00000     0.53229     1.00000
   7       0.55936     0.88151     0.00000     0.00000     0.16683     0.68486
   8       0.00000     0.00000     0.47164     0.00000     0.00000     0.00000
   9       0.00000     0.00000     0.00000     0.47164     0.00000     0.00000
  10      -0.53229    -0.16683     0.00000     0.00000    -0.23727    -0.00000

            7           8           9          10  
       ----------- ----------- ----------- -----------
   1       0.55936     0.00000     0.00000    -0.53229
   2       0.88151     0.00000     0.00000    -0.16683
   3       0.00000     0.47164     0.00000     0.00000
   4       0.00000     0.00000     0.47164     0.00000
   5       0.16683     0.00000     0.00000    -0.23727
   6       0.68486     0.00000     0.00000    -0.00000
   7       1.00000     0.00000     0.00000     0.00000
   8       0.00000     1.00000     0.00000     0.00000
   9       0.00000     0.00000     1.00000     0.00000
  10       0.00000     0.00000     0.00000     1.00000
 sym_movecs_adapt: orbital     4 was contaminated
   1.39D-17  0.00D+00  0.00D+00 -2.78D-17  3.21D-06 -5.55D-17  1.00D+00  0.00D+00
 sym_movecs_adapt: orbital     5 was contaminated
   0.00D+00  0.00D+00  0.00D+00  0.00D+00  1.00D+00  0.00D+00  3.21D-06  0.00D+00
 sym_movecs_adapt: orbital     8 was contaminated
   0.00D+00  0.00D+00  0.00D+00  0.00D+00  0.00D+00  6.36D-06  0.00D+00  1.00D+00
 sym_movecs_adapt: orbital     9 was contaminated
   2.78D-17  0.00D+00  0.00D+00 -1.39D-17  0.00D+00  1.00D+00  0.00D+00  6.36D-06

 !! scf_movecs_sym_adapt:    4 vectors were symmetry contaminated


 global array: orthog_mos: overlap[1:10,1:10],  handle: -991 

            1           2           3           4           5           6  
       ----------- ----------- ----------- ----------- ----------- -----------
   1       1.00000     0.68486     0.00000     0.00000     0.00000     0.55393
   2       0.68486     1.00000     0.00000     0.00000     0.00000     0.55936
   3       0.00000     0.00000     1.00000     0.00000     0.00000     0.00000
   4       0.00000     0.00000     0.00000     1.00000     0.00000     0.00000
   5       0.00000     0.00000     0.00000     0.00000     1.00000     0.53229
   6       0.55393     0.55936     0.00000     0.00000     0.53229     1.00000
   7       0.55936     0.88151     0.00000     0.00000     0.16683     0.68486
   8       0.00000     0.00000     0.47164     0.00000     0.00000     0.00000
   9       0.00000     0.00000     0.00000     0.47164     0.00000     0.00000
  10      -0.53229    -0.16683     0.00000     0.00000    -0.23727    -0.00000

            7           8           9          10  
       ----------- ----------- ----------- -----------
   1       0.55936     0.00000     0.00000    -0.53229
   2       0.88151     0.00000     0.00000    -0.16683
   3       0.00000     0.47164     0.00000     0.00000
   4       0.00000     0.00000     0.47164     0.00000
   5       0.16683     0.00000     0.00000    -0.23727
   6       0.68486     0.00000     0.00000    -0.00000
   7       1.00000     0.00000     0.00000     0.00000
   8       0.00000     1.00000     0.00000     0.00000
   9       0.00000     0.00000     1.00000     0.00000
  10       0.00000     0.00000     0.00000     1.00000

 Read molecular orbitals from ./noft_h2_dat.movecs


 global array: sym: S[1:10,1:10],  handle: -989 

            1           2           3           4           5           6  
       ----------- ----------- ----------- ----------- ----------- -----------
   1       1.00000     0.68486     0.00000     0.00000     0.00000     0.55393
   2       0.68486     1.00000     0.00000     0.00000     0.00000     0.55936
   3       0.00000     0.00000     1.00000     0.00000     0.00000     0.00000
   4       0.00000     0.00000     0.00000     1.00000     0.00000     0.00000
   5       0.00000     0.00000     0.00000     0.00000     1.00000     0.53229
   6       0.55393     0.55936     0.00000     0.00000     0.53229     1.00000
   7       0.55936     0.88151     0.00000     0.00000     0.16683     0.68486
   8       0.00000     0.00000     0.47164     0.00000     0.00000     0.00000
   9       0.00000     0.00000     0.00000     0.47164     0.00000     0.00000
  10      -0.53229    -0.16683     0.00000     0.00000    -0.23727    -0.00000

            7           8           9          10  
       ----------- ----------- ----------- -----------
   1       0.55936     0.00000     0.00000    -0.53229
   2       0.88151     0.00000     0.00000    -0.16683
   3       0.00000     0.47164     0.00000     0.00000
   4       0.00000     0.00000     0.47164     0.00000
   5       0.16683     0.00000     0.00000    -0.23727
   6       0.68486     0.00000     0.00000    -0.00000
   7       1.00000     0.00000     0.00000     0.00000
   8       0.00000     1.00000     0.00000     0.00000
   9       0.00000     0.00000     1.00000     0.00000
  10       0.00000     0.00000     0.00000     1.00000

 global array: orthog_mos: overlap[1:10,1:10],  handle: -991 

            1           2           3           4           5           6  
       ----------- ----------- ----------- ----------- ----------- -----------
   1       1.00000     0.68486     0.00000     0.00000     0.00000     0.55393
   2       0.68486     1.00000     0.00000     0.00000     0.00000     0.55936
   3       0.00000     0.00000     1.00000     0.00000     0.00000     0.00000
   4       0.00000     0.00000     0.00000     1.00000     0.00000     0.00000
   5       0.00000     0.00000     0.00000     0.00000     1.00000     0.53229
   6       0.55393     0.55936     0.00000     0.00000     0.53229     1.00000
   7       0.55936     0.88151     0.00000     0.00000     0.16683     0.68486
   8       0.00000     0.00000     0.47164     0.00000     0.00000     0.00000
   9       0.00000     0.00000     0.00000     0.47164     0.00000     0.00000
  10      -0.53229    -0.16683     0.00000     0.00000    -0.23727    -0.00000

            7           8           9          10  
       ----------- ----------- ----------- -----------
   1       0.55936     0.00000     0.00000    -0.53229
   2       0.88151     0.00000     0.00000    -0.16683
   3       0.00000     0.47164     0.00000     0.00000
   4       0.00000     0.00000     0.47164     0.00000
   5       0.16683     0.00000     0.00000    -0.23727
   6       0.68486     0.00000     0.00000    -0.00000
   7       1.00000     0.00000     0.00000     0.00000
   8       0.00000     1.00000     0.00000     0.00000
   9       0.00000     0.00000     1.00000     0.00000
  10       0.00000     0.00000     0.00000     1.00000

 global array: sym: S[1:10,1:10],  handle: -989 

            1           2           3           4           5           6  
       ----------- ----------- ----------- ----------- ----------- -----------
   1       1.00000     0.68486     0.00000     0.00000     0.00000     0.55393
   2       0.68486     1.00000     0.00000     0.00000     0.00000     0.55936
   3       0.00000     0.00000     1.00000     0.00000     0.00000     0.00000
   4       0.00000     0.00000     0.00000     1.00000     0.00000     0.00000
   5       0.00000     0.00000     0.00000     0.00000     1.00000     0.53229
   6       0.55393     0.55936     0.00000     0.00000     0.53229     1.00000
   7       0.55936     0.88151     0.00000     0.00000     0.16683     0.68486
   8       0.00000     0.00000     0.47164     0.00000     0.00000     0.00000
   9       0.00000     0.00000     0.00000     0.47164     0.00000     0.00000
  10      -0.53229    -0.16683     0.00000     0.00000    -0.23727    -0.00000

            7           8           9          10  
       ----------- ----------- ----------- -----------
   1       0.55936     0.00000     0.00000    -0.53229
   2       0.88151     0.00000     0.00000    -0.16683
   3       0.00000     0.47164     0.00000     0.00000
   4       0.00000     0.00000     0.47164     0.00000
   5       0.16683     0.00000     0.00000    -0.23727
   6       0.68486     0.00000     0.00000    -0.00000
   7       1.00000     0.00000     0.00000     0.00000
   8       0.00000     1.00000     0.00000     0.00000
   9       0.00000     0.00000     1.00000     0.00000
  10       0.00000     0.00000     0.00000     1.00000

 global array: orthog_mos: overlap[1:10,1:10],  handle: -991 

            1           2           3           4           5           6  
       ----------- ----------- ----------- ----------- ----------- -----------
   1       1.00000     0.68486     0.00000     0.00000     0.00000     0.55393
   2       0.68486     1.00000     0.00000     0.00000     0.00000     0.55936
   3       0.00000     0.00000     1.00000     0.00000     0.00000     0.00000
   4       0.00000     0.00000     0.00000     1.00000     0.00000     0.00000
   5       0.00000     0.00000     0.00000     0.00000     1.00000     0.53229
   6       0.55393     0.55936     0.00000     0.00000     0.53229     1.00000
   7       0.55936     0.88151     0.00000     0.00000     0.16683     0.68486
   8       0.00000     0.00000     0.47164     0.00000     0.00000     0.00000
   9       0.00000     0.00000     0.00000     0.47164     0.00000     0.00000
  10      -0.53229    -0.16683     0.00000     0.00000    -0.23727    -0.00000

            7           8           9          10  
       ----------- ----------- ----------- -----------
   1       0.55936     0.00000     0.00000    -0.53229
   2       0.88151     0.00000     0.00000    -0.16683
   3       0.00000     0.47164     0.00000     0.00000
   4       0.00000     0.00000     0.47164     0.00000
   5       0.16683     0.00000     0.00000    -0.23727
   6       0.68486     0.00000     0.00000    -0.00000
   7       1.00000     0.00000     0.00000     0.00000
   8       0.00000     1.00000     0.00000     0.00000
   9       0.00000     0.00000     1.00000     0.00000
  10       0.00000     0.00000     0.00000     1.00000
       0       0       0       0            1.5708      1.5708      -1.12862949       0.6955      -2.4758       0.6517       0.0000       0.0000       0.0000
       1       2       1      50  to_a      1.5708      0.0606      -1.13167565       0.6955      -2.4706       0.6498       0.0000      -0.0064       0.0000
       1       3       1     102  to_a      1.5708      0.0461      -1.13498086       0.6955      -2.4668       0.6490       0.0000      -0.0126       0.0000
       1       4       1     154  to_a      1.5708      0.0174      -1.13580121       0.6955      -2.4661       0.6489       0.0000      -0.0141       0.0000
       1       5       1     205  to_a      1.5708      0.0408      -1.14183253       0.6955      -2.4616       0.6489       0.0000      -0.0246       0.0000
       1       6       1     256  to_a      1.5708      0.0385      -1.14637476       0.6955      -2.4576       0.6489       0.0000      -0.0332       0.0000
       1       3       1     540  mo_a      1.5708      0.0026      -1.14638725       0.6955      -2.4592       0.6505       0.0000      -0.0332       0.0000
       1       4       2     596  mo_a      1.5708      0.9726      -1.15138398       0.6955      -2.4586       0.6522       0.0000      -0.0405       0.0000
       1       7       1     649  mo_a      1.5708      0.0019      -1.15139900       0.6955      -2.4582       0.6518       0.0000      -0.0405       0.0000
       1       7       3     703  mo_a      1.5708      0.2984      -1.15330193       0.6955      -2.4580       0.6521       0.0000      -0.0428       0.0000
       1      10       2     757  mo_a      1.5708      0.0620      -1.15342528       0.6955      -2.4581       0.6521       0.0000      -0.0430       0.0000
       1      10       4     811  mo_a      1.5708      0.2701      -1.15394017       0.6955      -2.4579       0.6521       0.0000      -0.0436       0.0000
       2       2       1     854  to_a      0.0606      0.0589      -1.15804293       0.6955      -2.4413       0.6523       0.0000      -0.0645       0.0000
       2       3       1     896  to_a      0.0461      0.0159      -1.15823186       0.6955      -2.4381       0.6518       0.0000      -0.0674       0.0000
       2       4       1     939  to_a      0.0174      0.0173      -1.16065838       0.6955      -2.4388       0.6520       0.0000      -0.0693       0.0000
       2       5       1     981  to_a      0.0408      0.0116      -1.16092132       0.6955      -2.4410       0.6520       0.0000      -0.0674       0.0000
       2       6       1    1022  to_a      0.0385      0.0087      -1.16107962       0.6955      -2.4426       0.6520       0.0000      -0.0659       0.0000
       2       3       1    1077  mo_a      0.0026      0.0070      -1.16118245       0.6955      -2.4470       0.6565       0.0000      -0.0661       0.0000
       2       4       2    1125  mo_a      0.9726      0.1915      -1.16251425       0.6955      -2.4492       0.6560       0.0000      -0.0648       0.0000
       2       7       1    1163  mo_a      0.0019      0.0033      -1.16255837       0.6955      -2.4490       0.6560       0.0000      -0.0650       0.0000
       2       7       3    1210  mo_a      0.2984      0.0182      -1.16256887       0.6955      -2.4491       0.6559       0.0000      -0.0649       0.0000
       2      10       2    1256  mo_a      0.0620      0.0551      -1.16286459       0.6955      -2.4495       0.6556       0.0000      -0.0644       0.0000
       2      10       4    1305  mo_a      0.2701      0.2446      -1.16287384       0.6955      -2.4495       0.6556       0.0000      -0.0644       0.0000
       3       2       1    1350  to_a      0.0589      0.0137      -1.16332412       0.6955      -2.4447       0.6554       0.0000      -0.0694       0.0000
       3       3       1    1394  to_a      0.0159      0.0000      -1.16332414       0.6955      -2.4447       0.6554       0.0000      -0.0694       0.0000
       3       3       1    1575  mo_a      0.0070      0.0011      -1.16332682       0.6955      -2.4440       0.6547       0.0000      -0.0694       0.0000
       3       4       2    1623  mo_a      0.1915      0.0352      -1.16339864       0.6955      -2.4444       0.6545       0.0000      -0.0690       0.0000
       3       7       1    1659  mo_a      0.0033      0.0004      -1.16339927       0.6955      -2.4444       0.6545       0.0000      -0.0690       0.0000
       3       7       3    1701  mo_a      0.0182      0.0192      -1.16341179       0.6955      -2.4444       0.6545       0.0000      -0.0690       0.0000
       3      10       2    1745  mo_a      0.0551      0.0266      -1.16348429       0.6955      -2.4446       0.6543       0.0000      -0.0686       0.0000
       4       2       1    1787  to_a      0.0137      0.0055      -1.16349460       0.6955      -2.4426       0.6542       0.0000      -0.0705       0.0000
       4       3       1    2042  mo_a      0.0011      0.0005      -1.16349510       0.6955      -2.4423       0.6538       0.0000      -0.0705       0.0000
       4       4       2    2085  mo_a      0.0352      0.0219      -1.16352472       0.6955      -2.4426       0.6537       0.0000      -0.0702       0.0000
       4       7       1    2116  mo_a      0.0004      0.0001      -1.16352474       0.6955      -2.4426       0.6537       0.0000      -0.0702       0.0000
       4       7       3    2160  mo_a      0.0192      0.0096      -1.16352792       0.6955      -2.4426       0.6537       0.0000      -0.0701       0.0000
       4      10       2    2202  mo_a      0.0266      0.0118      -1.16354327       0.6955      -2.4427       0.6536       0.0000      -0.0699       0.0000
       4      10       4    2252  mo_a      0.2446      0.0798      -1.16354383       0.6955      -2.4427       0.6536       0.0000      -0.0699       0.0000
       5       2       1    2289  to_a      0.0055      0.0019      -1.16354763       0.6955      -2.4420       0.6536       0.0000      -0.0706       0.0000
       5       3       1    2545  mo_a      0.0005      0.0003      -1.16354782       0.6955      -2.4418       0.6534       0.0000      -0.0706       0.0000
       5       4       2    2585  mo_a      0.0219      0.0087      -1.16355307       0.6955      -2.4418       0.6533       0.0000      -0.0705       0.0000
       5       7       1    2613  mo_a      0.0001      0.0000      -1.16355307       0.6955      -2.4418       0.6533       0.0000      -0.0705       0.0000
       5       7       3    2651  mo_a      0.0096      0.0044      -1.16355373       0.6955      -2.4419       0.6533       0.0000      -0.0705       0.0000
       5      10       2    2692  mo_a      0.0118      0.0058      -1.16355728       0.6955      -2.4419       0.6533       0.0000      -0.0704       0.0000
       5      10       4    2737  mo_a      0.0798      0.0145      -1.16355731       0.6955      -2.4419       0.6533       0.0000      -0.0704       0.0000
       6       2       1    2770  to_a      0.0019      0.0007      -1.16355787       0.6955      -2.4416       0.6532       0.0000      -0.0706       0.0000
       6       3       1    3020  mo_a      0.0003      0.0001      -1.16355791       0.6955      -2.4415       0.6531       0.0000      -0.0706       0.0000
       6       4       2    3057  mo_a      0.0087      0.0042      -1.16355918       0.6955      -2.4416       0.6531       0.0000      -0.0706       0.0000
       6       7       3    3097  mo_a      0.0044      0.0022      -1.16355935       0.6955      -2.4416       0.6531       0.0000      -0.0706       0.0000
       6      10       2    3137  mo_a      0.0058      0.0026      -1.16356008       0.6955      -2.4416       0.6531       0.0000      -0.0705       0.0000
       7       2       1    3172  to_a      0.0007      0.0003      -1.16356019       0.6955      -2.4415       0.6531       0.0000      -0.0706       0.0000
       7       3       1    3422  mo_a      0.0001      0.0001      -1.16356020       0.6955      -2.4414       0.6530       0.0000      -0.0706       0.0000
       7       4       2    3460  mo_a      0.0042      0.0019      -1.16356047       0.6955      -2.4415       0.6530       0.0000      -0.0706       0.0000
       7       7       3    3498  mo_a      0.0022      0.0010      -1.16356050       0.6955      -2.4415       0.6530       0.0000      -0.0706       0.0000
       7      10       2    3533  mo_a      0.0026      0.0012      -1.16356065       0.6955      -2.4415       0.6530       0.0000      -0.0706       0.0000
       7      10       4    3573  mo_a      0.0145      0.0106      -1.16356066       0.6955      -2.4415       0.6530       0.0000      -0.0706       0.0000
       8       2       1    3602  to_a      0.0003      0.0001      -1.16356068       0.6955      -2.4414       0.6530       0.0000      -0.0706       0.0000
       8       3       1    3848  mo_a      0.0001      0.0000      -1.16356068       0.6955      -2.4414       0.6530       0.0000      -0.0706       0.0000
       8       4       2    3884  mo_a      0.0019      0.0009      -1.16356074       0.6955      -2.4414       0.6530       0.0000      -0.0706       0.0000
       8       7       3    3919  mo_a      0.0010      0.0005      -1.16356075       0.6955      -2.4414       0.6530       0.0000      -0.0706       0.0000
       8      10       2    3950  mo_a      0.0012      0.0005      -1.16356078       0.6955      -2.4414       0.6530       0.0000      -0.0706       0.0000
       9       2       1    3978  to_a      0.0001      0.0001      -1.16356078       0.6955      -2.4414       0.6530       0.0000      -0.0706       0.0000
       9       7       3    4237  mo_a      0.0005      0.0002      -1.16356078       0.6955      -2.4414       0.6530       0.0000      -0.0706       0.0000
       9      10       2    4269  mo_a      0.0005      0.0001      -1.16356078       0.6955      -2.4414       0.6530       0.0000      -0.0706       0.0000

 ======================
 Calculation converged!
 ======================


 Wrote molecular orbitals to ./noft_h2_dat.svecs


 Wrote molecular orbitals to ./noft_h2_dat.mvecs


 Wrote molecular orbitals to ./noft_h2_dat.tvecs


 Wrote molecular orbitals to ./noft_h2_dat.movecs

  mo #   alpha occ   beta  occ
  ====   =========   =========
     1    0.974519    0.974519
     2    0.019946    0.019946
     3    0.003808    0.003808
     4    0.000000    0.000000
     5    0.000847    0.000847
     6    0.000880    0.000880
     7    0.000000    0.000000
     8    0.000000    0.000000
     9    0.000000    0.000000
    10    0.000000    0.000000

  dim1 dim2                    60                   10
  rlo rhi                     1                   60
  clo chi                     1                   10
  using                     1  nodes out of                     1

                                     alpha mos
                                     ---------

 Vector    1  Occ=9.745192D-01
              MO Center= -6.2D-18,  1.7D-18,  8.0D-17, r^2= 7.1D-01
   Bfn.  Coefficient  Atom+Function         Bfn.  Coefficient  Atom+Function  
  ----- ------------  ---------------      ----- ------------  ---------------
     1      0.408875  1 H  s                  6      0.408875  2 H  s          
     2      0.171694  1 H  s                  7      0.171694  2 H  s          
     5      0.019470  1 H  pz                10     -0.019470  2 H  pz         

 Vector    2  Occ=1.994560D-02
              MO Center=  7.3D-30, -4.9D-30, -6.9D-18, r^2= 9.0D-01
   Bfn.  Coefficient  Atom+Function         Bfn.  Coefficient  Atom+Function  
  ----- ------------  ---------------      ----- ------------  ---------------
     1      0.744986  1 H  s                  6     -0.744986  2 H  s          
     2      0.456594  1 H  s                  7     -0.456594  2 H  s          
     5     -0.135706  1 H  pz                10     -0.135706  2 H  pz         

 Vector    3  Occ=3.807945D-03
              MO Center=  3.9D-20, -8.3D-22,  5.6D-16, r^2= 2.0D+00
   Bfn.  Coefficient  Atom+Function         Bfn.  Coefficient  Atom+Function  
  ----- ------------  ---------------      ----- ------------  ---------------
     2     -0.654125  1 H  s                  7     -0.654125  2 H  s          
     1      0.576955  1 H  s                  6      0.576955  2 H  s          
     5      0.186421  1 H  pz                10     -0.186421  2 H  pz         

 Vector    4  Occ=7.926504D-11
              MO Center=  6.9D-31, -4.6D-31, -5.3D-16, r^2= 2.8D+00
   Bfn.  Coefficient  Atom+Function         Bfn.  Coefficient  Atom+Function  
  ----- ------------  ---------------      ----- ------------  ---------------
     2      2.056587  1 H  s                  7     -2.056587  2 H  s          
     5      1.370201  1 H  pz                10      1.370201  2 H  pz         
     1      0.951473  1 H  s                  6     -0.951473  2 H  s          

 Vector    5  Occ=8.470266D-04
              MO Center=  6.4D-18,  5.9D-62, -2.8D-36, r^2= 5.8D-01
   Bfn.  Coefficient  Atom+Function         Bfn.  Coefficient  Atom+Function  
  ----- ------------  ---------------      ----- ------------  ---------------
     3      0.582886  1 H  px                 8      0.582886  2 H  px         

 Vector    6  Occ=8.802151D-04
              MO Center= -3.3D-53, -1.7D-18, -7.7D-38, r^2= 5.8D-01
   Bfn.  Coefficient  Atom+Function         Bfn.  Coefficient  Atom+Function  
  ----- ------------  ---------------      ----- ------------  ---------------
     4      0.582886  1 H  py                 9      0.582886  2 H  py         

 Vector    7  Occ=0.000000D+00
              MO Center= -1.8D-19,  1.0D-20,  3.6D-16, r^2= 1.1D+00
   Bfn.  Coefficient  Atom+Function         Bfn.  Coefficient  Atom+Function  
  ----- ------------  ---------------      ----- ------------  ---------------
     5      0.689653  1 H  pz                10     -0.689653  2 H  pz         
     1     -0.594921  1 H  s                  6     -0.594921  2 H  s          
     2      0.388952  1 H  s                  7      0.388952  2 H  s          

 Vector    8  Occ=0.000000D+00
              MO Center=  1.4D-49,  5.2D-30, -9.5D-38, r^2= 7.6D-01
   Bfn.  Coefficient  Atom+Function         Bfn.  Coefficient  Atom+Function  
  ----- ------------  ---------------      ----- ------------  ---------------
     4      0.972794  1 H  py                 9     -0.972794  2 H  py         

 Vector    9  Occ=0.000000D+00
              MO Center= -7.8D-30, -2.0D-51, -3.5D-40, r^2= 7.6D-01
   Bfn.  Coefficient  Atom+Function         Bfn.  Coefficient  Atom+Function  
  ----- ------------  ---------------      ----- ------------  ---------------
     3      0.972794  1 H  px                 8     -0.972794  2 H  px         

 Vector   10  Occ=0.000000D+00
              MO Center= -2.2D-31,  1.5D-31, -5.0D-16, r^2= 1.3D+00
   Bfn.  Coefficient  Atom+Function         Bfn.  Coefficient  Atom+Function  
  ----- ------------  ---------------      ----- ------------  ---------------
     1      2.309294  1 H  s                  6     -2.309294  2 H  s          
     5      1.460915  1 H  pz                10      1.460915  2 H  pz         
     2     -1.320165  1 H  s                  7      1.320165  2 H  s          

  dim1 dim2                    60                   10
  rlo rhi                     1                   60
  clo chi                     1                   10
  using                     1  nodes out of                     1

                                     beta mos
                                     --------

 Vector    1  Occ=9.745192D-01
              MO Center= -6.2D-18,  1.7D-18,  8.0D-17, r^2= 7.1D-01
   Bfn.  Coefficient  Atom+Function         Bfn.  Coefficient  Atom+Function  
  ----- ------------  ---------------      ----- ------------  ---------------
     1      0.408875  1 H  s                  6      0.408875  2 H  s          
     2      0.171694  1 H  s                  7      0.171694  2 H  s          
     5      0.019470  1 H  pz                10     -0.019470  2 H  pz         

 Vector    2  Occ=1.994560D-02
              MO Center=  7.3D-30, -4.9D-30, -6.9D-18, r^2= 9.0D-01
   Bfn.  Coefficient  Atom+Function         Bfn.  Coefficient  Atom+Function  
  ----- ------------  ---------------      ----- ------------  ---------------
     1      0.744986  1 H  s                  6     -0.744986  2 H  s          
     2      0.456594  1 H  s                  7     -0.456594  2 H  s          
     5     -0.135706  1 H  pz                10     -0.135706  2 H  pz         

 Vector    3  Occ=3.807945D-03
              MO Center=  3.9D-20, -8.3D-22,  5.6D-16, r^2= 2.0D+00
   Bfn.  Coefficient  Atom+Function         Bfn.  Coefficient  Atom+Function  
  ----- ------------  ---------------      ----- ------------  ---------------
     2     -0.654125  1 H  s                  7     -0.654125  2 H  s          
     1      0.576955  1 H  s                  6      0.576955  2 H  s          
     5      0.186421  1 H  pz                10     -0.186421  2 H  pz         

 Vector    4  Occ=7.926504D-11
              MO Center=  6.9D-31, -4.6D-31, -5.3D-16, r^2= 2.8D+00
   Bfn.  Coefficient  Atom+Function         Bfn.  Coefficient  Atom+Function  
  ----- ------------  ---------------      ----- ------------  ---------------
     2      2.056587  1 H  s                  7     -2.056587  2 H  s          
     5      1.370201  1 H  pz                10      1.370201  2 H  pz         
     1      0.951473  1 H  s                  6     -0.951473  2 H  s          

 Vector    5  Occ=8.470266D-04
              MO Center=  6.4D-18,  5.9D-62, -2.8D-36, r^2= 5.8D-01
   Bfn.  Coefficient  Atom+Function         Bfn.  Coefficient  Atom+Function  
  ----- ------------  ---------------      ----- ------------  ---------------
     3      0.582886  1 H  px                 8      0.582886  2 H  px         

 Vector    6  Occ=8.802151D-04
              MO Center= -3.3D-53, -1.7D-18, -7.7D-38, r^2= 5.8D-01
   Bfn.  Coefficient  Atom+Function         Bfn.  Coefficient  Atom+Function  
  ----- ------------  ---------------      ----- ------------  ---------------
     4      0.582886  1 H  py                 9      0.582886  2 H  py         

 Vector    7  Occ=0.000000D+00
              MO Center= -1.8D-19,  1.0D-20,  3.6D-16, r^2= 1.1D+00
   Bfn.  Coefficient  Atom+Function         Bfn.  Coefficient  Atom+Function  
  ----- ------------  ---------------      ----- ------------  ---------------
     5      0.689653  1 H  pz                10     -0.689653  2 H  pz         
     1     -0.594921  1 H  s                  6     -0.594921  2 H  s          
     2      0.388952  1 H  s                  7      0.388952  2 H  s          

 Vector    8  Occ=0.000000D+00
              MO Center=  1.4D-49,  5.2D-30, -9.5D-38, r^2= 7.6D-01
   Bfn.  Coefficient  Atom+Function         Bfn.  Coefficient  Atom+Function  
  ----- ------------  ---------------      ----- ------------  ---------------
     4      0.972794  1 H  py                 9     -0.972794  2 H  py         

 Vector    9  Occ=0.000000D+00
              MO Center= -7.8D-30, -2.0D-51, -3.5D-40, r^2= 7.6D-01
   Bfn.  Coefficient  Atom+Function         Bfn.  Coefficient  Atom+Function  
  ----- ------------  ---------------      ----- ------------  ---------------
     3      0.972794  1 H  px                 8     -0.972794  2 H  px         

 Vector   10  Occ=0.000000D+00
              MO Center= -2.2D-31,  1.5D-31, -5.0D-16, r^2= 1.3D+00
   Bfn.  Coefficient  Atom+Function         Bfn.  Coefficient  Atom+Function  
  ----- ------------  ---------------      ----- ------------  ---------------
     1      2.309294  1 H  s                  6     -2.309294  2 H  s          
     5      1.460915  1 H  pz                10      1.460915  2 H  pz         
     2     -1.320165  1 H  s                  7      1.320165  2 H  s          


 global array: alpha tos[1:10,1:10],  handle: -994 

            1           2           3           4           5           6  
       ----------- ----------- ----------- ----------- ----------- -----------
   1       0.98718     0.14119     0.06168     0.00019     0.02925     0.02974
   2      -0.14123     0.98996    -0.00468     0.00101    -0.00109    -0.00129
   3      -0.06171    -0.00409     0.99808     0.00027    -0.00117    -0.00123
   4       0.00001    -0.00102    -0.00028     1.00000    -0.00071    -0.00067
   5      -0.02910    -0.00306    -0.00065     0.00071     0.99957    -0.00132
   6      -0.02967    -0.00293    -0.00061     0.00067     0.00044     0.99955
   7       0.00000     0.00000     0.00000     0.00000     0.00000     0.00000
   8       0.00000     0.00000     0.00000     0.00000     0.00000     0.00000
   9       0.00000     0.00000     0.00000     0.00000     0.00000     0.00000
  10       0.00000     0.00000     0.00000     0.00000     0.00000     0.00000

            7           8           9          10  
       ----------- ----------- ----------- -----------
   1       0.00000     0.00000     0.00000     0.00000
   2       0.00000     0.00000     0.00000     0.00000
   3       0.00000     0.00000     0.00000     0.00000
   4       0.00000     0.00000     0.00000     0.00000
   5       0.00000     0.00000     0.00000     0.00000
   6       0.00000     0.00000     0.00000     0.00000
   7       1.00000     0.00000     0.00000     0.00000
   8       0.00000     1.00000     0.00000     0.00000
   9       0.00000     0.00000     1.00000     0.00000
  10       0.00000     0.00000     0.00000     1.00000

 global array: beta tos[1:10,1:10],  handle: -993 

            1           2           3           4           5           6  
       ----------- ----------- ----------- ----------- ----------- -----------
   1       0.98718     0.14119     0.06168     0.00019     0.02925     0.02974
   2      -0.14123     0.98996    -0.00468     0.00101    -0.00109    -0.00129
   3      -0.06171    -0.00409     0.99808     0.00027    -0.00117    -0.00123
   4       0.00001    -0.00102    -0.00028     1.00000    -0.00071    -0.00067
   5      -0.02910    -0.00306    -0.00065     0.00071     0.99957    -0.00132
   6      -0.02967    -0.00293    -0.00061     0.00067     0.00044     0.99955
   7       0.00000     0.00000     0.00000     0.00000     0.00000     0.00000
   8       0.00000     0.00000     0.00000     0.00000     0.00000     0.00000
   9       0.00000     0.00000     0.00000     0.00000     0.00000     0.00000
  10       0.00000     0.00000     0.00000     0.00000     0.00000     0.00000

            7           8           9          10  
       ----------- ----------- ----------- -----------
   1       0.00000     0.00000     0.00000     0.00000
   2       0.00000     0.00000     0.00000     0.00000
   3       0.00000     0.00000     0.00000     0.00000
   4       0.00000     0.00000     0.00000     0.00000
   5       0.00000     0.00000     0.00000     0.00000
   6       0.00000     0.00000     0.00000     0.00000
   7       1.00000     0.00000     0.00000     0.00000
   8       0.00000     1.00000     0.00000     0.00000
   9       0.00000     0.00000     1.00000     0.00000
  10       0.00000     0.00000     0.00000     1.00000

 global array: alpha mos[1:10,1:10],  handle: -996 

            1           2           3           4           5           6  
       ----------- ----------- ----------- ----------- ----------- -----------
   1      -0.00000    -0.15842     0.00000    -0.47608    -0.00000     0.00000
   2       0.00000     0.14161     0.00000     0.85607     0.00000     0.00000
   3      -0.16913    -0.00000    -0.62507     0.00000    -0.00000    -0.00000
   4      -0.00000    -0.00000    -0.00000    -0.00000    -0.00000    -0.00000
   5      -0.00000    -0.00000    -0.00000    -0.00000     0.00000    -0.00000
   6       0.00000    -0.97716    -0.00000     0.20124    -0.00000     0.00000
   7       0.02026     0.00000    -0.77520     0.00000     0.00000    -0.00000
   8       0.00000     0.00000    -0.00000     0.00000    -1.00000    -0.00000
   9      -0.00000    -0.00000    -0.00000    -0.00000    -0.00000     1.00000
  10      -0.98539     0.00000     0.09135     0.00000    -0.00000     0.00000

            7           8           9          10  
       ----------- ----------- ----------- -----------
   1      -0.00000    -0.00000     0.00000    -0.86502
   2      -0.00000     0.00000     0.00000    -0.49709
   3       0.76202    -0.00000    -0.00000    -0.00000
   4       0.00000     1.00000    -0.00000     0.00000
   5       0.00000    -0.00000     1.00000     0.00000
   6      -0.00000    -0.00000     0.00000     0.06820
   7      -0.63139    -0.00000    -0.00000     0.00000
   8      -0.00000     0.00000     0.00000    -0.00000
   9      -0.00000    -0.00000     0.00000     0.00000
  10      -0.14378     0.00000     0.00000    -0.00000

 global array: beta mos[1:10,1:10],  handle: -995 

            1           2           3           4           5           6  
       ----------- ----------- ----------- ----------- ----------- -----------
   1      -0.00000    -0.15842     0.00000    -0.47608    -0.00000     0.00000
   2       0.00000     0.14161     0.00000     0.85607     0.00000     0.00000
   3      -0.16913    -0.00000    -0.62507     0.00000    -0.00000    -0.00000
   4      -0.00000    -0.00000    -0.00000    -0.00000    -0.00000    -0.00000
   5      -0.00000    -0.00000    -0.00000    -0.00000     0.00000    -0.00000
   6       0.00000    -0.97716    -0.00000     0.20124    -0.00000     0.00000
   7       0.02026     0.00000    -0.77520     0.00000     0.00000    -0.00000
   8       0.00000     0.00000    -0.00000     0.00000    -1.00000    -0.00000
   9      -0.00000    -0.00000    -0.00000    -0.00000    -0.00000     1.00000
  10      -0.98539     0.00000     0.09135     0.00000    -0.00000     0.00000

            7           8           9          10  
       ----------- ----------- ----------- -----------
   1      -0.00000    -0.00000     0.00000    -0.86502
   2      -0.00000     0.00000     0.00000    -0.49709
   3       0.76202    -0.00000    -0.00000    -0.00000
   4       0.00000     1.00000    -0.00000     0.00000
   5       0.00000    -0.00000     1.00000     0.00000
   6      -0.00000    -0.00000     0.00000     0.06820
   7      -0.63139    -0.00000    -0.00000     0.00000
   8      -0.00000     0.00000     0.00000    -0.00000
   9      -0.00000    -0.00000     0.00000     0.00000
  10      -0.14378     0.00000     0.00000    -0.00000

 global array: orthog[1:10,1:10],  handle: -997 

            1           2           3           4           5           6  
       ----------- ----------- ----------- ----------- ----------- -----------
   1      -2.56857    -0.22790    -0.88314    -0.00000    -0.00000    -0.37900
   2       0.09053     2.48147     0.67623     0.00000     0.00000    -0.12234
   3       0.00000     0.00000    -0.00000    -0.00000     0.97279     0.00000
   4       0.00000     0.00000    -0.00000     0.97279    -0.00000     0.00000
   5      -1.89454     0.42756     0.40571     0.00000     0.00000     0.50799
   6       2.56857     0.22790    -0.88314    -0.00000    -0.00000     0.37900
   7      -0.09053    -2.48147     0.67623     0.00000     0.00000     0.12234
   8       0.00000    -0.00000     0.00000     0.00000    -0.97279     0.00000
   9       0.00000    -0.00000     0.00000    -0.97279    -0.00000     0.00000
  10      -1.89454     0.42756    -0.40571    -0.00000    -0.00000     0.50799

            7           8           9          10  
       ----------- ----------- ----------- -----------
   1      -0.06335     0.00000    -0.00000    -0.26466
   2       0.26498     0.00000     0.00000    -0.28486
   3       0.00000    -0.58289    -0.00000    -0.00000
   4      -0.00000    -0.00000     0.58289    -0.00000
   5      -0.57956    -0.00000    -0.00000    -0.10131
   6      -0.06335     0.00000    -0.00000    -0.26466
   7       0.26498     0.00000     0.00000    -0.28486
   8       0.00000    -0.58289    -0.00000     0.00000
   9      -0.00000    -0.00000     0.58289     0.00000
  10       0.57956     0.00000     0.00000     0.10131

 Task  times  cpu:       49.9s     wall:       49.9s


                                NWChem Input Module
                                -------------------


 Summary of allocated global arrays
-----------------------------------
  No active global arrays


MA_summarize_allocated_blocks: starting scan ...
MA_summarize_allocated_blocks: scan completed: 0 heap blocks, 0 stack blocks
MA usage statistics:

	allocation statistics:
					      heap	     stack
					      ----	     -----
	current number of blocks	         0	         0
	maximum number of blocks	        17	        14
	current total bytes		         0	         0
	maximum total bytes		     80120	  22509176
	maximum total K-bytes		        81	     22510
	maximum total M-bytes		         1	        23


                                     CITATION
                                     --------
                Please cite the following reference when publishing
                           results obtained with NWChem:

          E. Apra, E. J. Bylaska, W. A. de Jong, N. Govind, K. Kowalski,
       T. P. Straatsma, M. Valiev, H. J. J. van Dam, Y. Alexeev, J. Anchell,
       V. Anisimov, F. W. Aquino, R. Atta-Fynn, J. Autschbach, N. P. Bauman,
     J. C. Becca, D. E. Bernholdt, K. Bhaskaran-Nair, S. Bogatko, P. Borowski,
         J. Boschen, J. Brabec, A. Bruner, E. Cauet, Y. Chen, G. N. Chuev,
      C. J. Cramer, J. Daily, M. J. O. Deegan, T. H. Dunning Jr., M. Dupuis,
   K. G. Dyall, G. I. Fann, S. A. Fischer, A. Fonari, H. Fruchtl, L. Gagliardi,
      J. Garza, N. Gawande, S. Ghosh, K. Glaesemann, A. W. Gotz, J. Hammond,
       V. Helms, E. D. Hermes, K. Hirao, S. Hirata, M. Jacquelin, L. Jensen,
   B. G. Johnson, H. Jonsson, R. A. Kendall, M. Klemm, R. Kobayashi, V. Konkov,
      S. Krishnamoorthy, M. Krishnan, Z. Lin, R. D. Lins, R. J. Littlefield,
      A. J. Logsdail, K. Lopata, W. Ma, A. V. Marenich, J. Martin del Campo,
   D. Mejia-Rodriguez, J. E. Moore, J. M. Mullin, T. Nakajima, D. R. Nascimento,
    J. A. Nichols, P. J. Nichols, J. Nieplocha, A. Otero-de-la-Roza, B. Palmer,
    A. Panyala, T. Pirojsirikul, B. Peng, R. Peverati, J. Pittner, L. Pollack,
   R. M. Richard, P. Sadayappan, G. C. Schatz, W. A. Shelton, D. W. Silverstein,
   D. M. A. Smith, T. A. Soares, D. Song, M. Swart, H. L. Taylor, G. S. Thomas,
            V. Tipparaju, D. G. Truhlar, K. Tsemekhman, T. Van Voorhis,
      A. Vazquez-Mayagoitia, P. Verma, O. Villa, A. Vishnu, K. D. Vogiatzis,
        D. Wang, J. H. Weare, M. J. Williamson, T. L. Windus, K. Wolinski,
        A. T. Wong, Q. Wu, C. Yang, Q. Yu, M. Zacharias, Z. Zhang, Y. Zhao,
                                and R. J. Harrison
                        "NWChem: Past, present, and future
                         J. Chem. Phys. 152, 184102 (2020)
                               doi:10.1063/5.0004997

                                      AUTHORS
                                      -------
  E. Apra, E. J. Bylaska, N. Govind, K. Kowalski, M. Valiev, D. Mejia-Rodriguez,
       A. Kunitsa, N. P. Bauman, A. Panyala, W. A. de Jong, T. P. Straatsma,
   H. J. J. van Dam, D. Wang, T. L. Windus, J. Hammond, J. Autschbach, A. Woods,
    K. Bhaskaran-Nair, J. Brabec, K. Lopata, S. A. Fischer, S. Krishnamoorthy,
     M. Jacquelin, W. Ma, M. Klemm, O. Villa, Y. Chen, V. Anisimov, F. Aquino,
     S. Hirata, M. T. Hackler, E. Hermes, L. Jensen, J. E. Moore, J. C. Becca,
      V. Konjkov, T. Risthaus, M. Malagoli, A. Marenich, A. Otero-de-la-Roza,
        J. Mullin, P. Nichols, R. Peverati, J. Pittner, Y. Zhao, P.-D. Fan,
        A. Fonari, M. J. Williamson, R. J. Harrison, J. R. Rehr, M. Dupuis,
     D. Silverstein, D. M. A. Smith, J. Nieplocha, V. Tipparaju, M. Krishnan,
     B. E. Van Kuiken, A. Vazquez-Mayagoitia, M. Swart, Q. Wu, T. Van Voorhis,
     A. A. Auer, M. Nooijen, L. D. Crosby, E. Brown, G. Cisneros, G. I. Fann,
   H. Fruchtl, J. Garza, K. Hirao, R. A. Kendall, J. A. Nichols, K. Tsemekhman,
    K. Wolinski, J. Anchell, D. E. Bernholdt, P. Borowski, T. Clark, D. Clerc,
   H. Dachsel, M. J. O. Deegan, K. Dyall, D. Elwood, E. Glendening, M. Gutowski,
   A. C. Hess, J. Jaffe, B. G. Johnson, J. Ju, R. Kobayashi, R. Kutteh, Z. Lin,
   R. Littlefield, X. Long, B. Meng, T. Nakajima, S. Niu, L. Pollack, M. Rosing,
   K. Glaesemann, G. Sandrone, M. Stave, H. Taylor, G. Thomas, J. H. van Lenthe,
                               A. T. Wong, Z. Zhang.

 Total times  cpu:       50.1s     wall:       50.1s
