 argument  1 = /home/hvandam/nwchem-1-srp-hpc/QA/tests/ZSM-5/xyz/cluster09-oh-h-4.0-nmr.nw



============================== echo of input deck ==============================
echo
start zeolite-cluster
memory stack 800 mb heap 200 mb global 6 gb

geometry
load cluster09-oh-h-4.0.xyz
end

geometry adjust
  zcoord
    bond 37 106 4.0 "oh-h" constant
  end
end


basis
  * library 3-21g*
end

relativistic
  zora on
  zora:cutoff_NMR 1d-8
  zora:cutoff 1d-30
end

dft
  direct
  xc hfexch
end

#set geometry:actlist 1:77
#set geometry:actlist 78:103

driver
  maxiter 200
end

property
  gshift
  hyperfine
  shielding
end

task dft property

================================================================================


                                         
                                         


             Northwest Computational Chemistry Package (NWChem) 7.0.1
             --------------------------------------------------------


                    Environmental Molecular Sciences Laboratory
                       Pacific Northwest National Laboratory
                                Richland, WA 99352

                              Copyright (c) 1994-2020
                       Pacific Northwest National Laboratory
                            Battelle Memorial Institute

             NWChem is an open-source computational chemistry package
                        distributed under the terms of the
                      Educational Community License (ECL) 2.0
             A copy of the license is included with this distribution
                              in the LICENSE.TXT file

                                  ACKNOWLEDGMENT
                                  --------------

            This software and its documentation were developed at the
            EMSL at Pacific Northwest National Laboratory, a multiprogram
            national laboratory, operated for the U.S. Department of Energy
            by Battelle under Contract Number DE-AC05-76RL01830. Support
            for this work was provided by the Department of Energy Office
            of Biological and Environmental Research, Office of Basic
            Energy Sciences, and the Office of Advanced Scientific Computing.


           Job information
           ---------------

    hostname        = node002
    program         = /home/hvandam/nwchem-1-srp-hpc/bin/LINUX64/nwchem
    date            = Wed Dec 14 13:51:09 2022

    compiled        = Fri_Jul_08_12:50:28_2022
    source          = /home/hvandam/nwchem-1-srp-hpc
    nwchem branch   = 7.0.0
    nwchem revision = nwchem_on_git-4025-gba861c8c44
    ga revision     = 5.8.1
    use scalapack   = F
    input           = /home/hvandam/nwchem-1-srp-hpc/QA/tests/ZSM-5/xyz/cluster09-oh-h-4.0-nmr.nw
    prefix          = zeolite-cluster.
    data base       = ./zeolite-cluster.db
    status          = startup
    nproc           =       16
    time left       =     -1s



           Memory information
           ------------------

    heap     =   26214394 doubles =    200.0 Mbytes
    stack    =  104857599 doubles =    800.0 Mbytes
    global   =  805306368 doubles =   6144.0 Mbytes (distinct from heap & stack)
    total    =  936378361 doubles =   7144.0 Mbytes
    verify   = yes
    hardfail = no 


           Directory information
           ---------------------

  0 permanent = .
  0 scratch   = .




                                NWChem Input Module
                                -------------------



 Scaling coordinates for geometry "geometry" by  1.889725989
 (inverse scale =  0.529177249)

 C1  symmetry detected

          ------
          auto-z
          ------
  autoz: The atoms group into disjoint clusters
 cluster   1:    1    2    3    4    5    6    7    8    9   10   11
                12   13   14   15   16   17   18   19   20   21   22
                23   24   25   26   27   28   29   30   31   32   33
                34   35   36   37   38   39   40   41   42   43   44
                45   46   47   48   49   50   51   52   53   54   55
                56   57   58   59   60   61   62   63   64   65   66
                67   68   69   70   71   72   73   74   75   76   77
                78   79   80   81   82   83   84   85   86   87   88
                89   90   91   92   93   94   95   96   97   98   99
               100  101  102  103
 cluster   2:  104  105  106  107  108  109  110  111  112  113  114
               115
 Connecting clusters   1   2 via atoms   20  112 r = 2.29
  autoz: regenerating connections with new bonds
  no constraints, skipping    0.0000000000000000     
  no constraints, skipping    0.0000000000000000     


                             Geometry "geometry" -> ""
                             -------------------------

 Output coordinates in angstroms (scale by  1.889725989 to convert to a.u.)

  No.       Tag          Charge          X              Y              Z
 ---- ---------------- ---------- -------------- -------------- --------------
    1 O                    8.0000    -2.20899270     6.81819552    -3.22457986
    2 Si                  14.0000    -3.75533722    -2.00733567    -2.15283287
    3 Si                  14.0000     1.82689757    -3.85888178    -1.10447814
    4 Si                  14.0000     4.34384959    -3.23708549     0.71932316
    5 Si                  14.0000     5.65705356    -0.73936554    -0.67856648
    6 Si                  14.0000     1.83916501     3.41609445    -1.83370159
    7 Si                  14.0000     2.97807555     0.87729399    -0.63369107
    8 Si                  14.0000     0.45207188    -1.05059294    -0.54837556
    9 Si                  14.0000    -0.76540396     2.82851651    -3.56611420
   10 Si                  14.0000    -1.76004581    -4.20272416    -2.90506589
   11 Si                  14.0000    -0.62153174    -5.52286007    -0.28227325
   12 O                    8.0000    -4.61816261    -2.52919748    -3.43659740
   13 O                    8.0000     3.21585326    -3.73132334    -0.33138582
   14 O                    8.0000     5.30366890    -2.15933807     0.01752535
   15 O                    8.0000     3.57764068    -2.52613571     1.94670558
   16 O                    8.0000    -2.28339134    -2.75511954    -2.28385397
   17 O                    8.0000    -0.07833146    -1.15095003     0.96066158
   18 O                    8.0000     0.95722987    -2.51057853    -0.99225845
   19 O                    8.0000     4.23561607    -0.03669619    -1.01666244
   20 O                    8.0000     2.08925892    -4.09114830    -2.71073450
   21 O                    8.0000     6.50363671    -1.03179809    -2.02563973
   22 O                    8.0000    -0.44934123    -3.92621914    -3.77612460
   23 O                    8.0000     2.65314473     4.66158609    -2.45507743
   24 O                    8.0000     2.84406660     2.17183097    -1.57154752
   25 O                    8.0000     1.57127552     0.07275350    -0.63255171
   26 O                    8.0000    -0.86259586    -0.77416430    -1.53675048
   27 O                    8.0000    -1.65376972     1.70262542    -2.88679038
   28 O                    8.0000     0.66330900     2.93604812    -2.80887561
   29 O                    8.0000    -2.98410994    -4.79409320    -3.75734594
   30 O                    8.0000    -1.39767822    -5.14954648    -1.64579856
   31 O                    8.0000    -0.71085089    -7.09727631     0.03580764
   32 O                    8.0000    -1.24914604    -4.71777337     0.95293828
   33 O                    8.0000    -0.53225287     2.48430520    -5.13083764
   34 O                    8.0000    -3.44914104    -0.45242284    -2.17580458
   35 O                    8.0000     0.92055151    -5.05383402    -0.51969413
   36 Al                  13.0000    -2.13517842     0.57758997    -1.71525582
   37 H                    1.0000    -1.28695970    -1.61723379    -1.92659730
   38 Si                  14.0000    -0.16937768    -1.49600548     2.53967955
   39 Si                  14.0000     2.92515065    -1.71129241     3.17413150
   40 Si                  14.0000    -1.44243480     5.62184848    -2.45794204
   41 Si                  14.0000     3.72647768     1.27693742     2.42653190
   42 Si                  14.0000    -5.46367213     0.20685288     1.93437987
   43 Si                  14.0000    -4.70119961    -2.69911558     0.79799013
   44 Si                  14.0000    -2.05565527    -3.95119322     2.12368715
   45 Si                  14.0000     0.75915764     4.74319685     0.83121574
   46 Si                  14.0000     1.57660656     3.18863186     3.31687464
   47 Si                  14.0000    -0.92149339     1.39593072     3.35643739
   48 Si                  14.0000    -3.01385735     1.96330663     1.05462939
   49 Si                  14.0000    -2.32883550     4.89639406     0.50249104
   50 O                    8.0000     1.31898139    -1.82440925     3.05774184
   51 O                    8.0000     0.09797055     6.03697065    -2.13089380
   52 O                    8.0000     3.36047660    -0.16597053     3.03292485
   53 O                    8.0000    -6.96501388     0.46965475     1.38572299
   54 O                    8.0000    -0.75444608    -0.21057872     3.31000804
   55 O                    8.0000    -4.44485935    -2.49505594    -0.78585839
   56 O                    8.0000    -5.03945307    -1.26882202     1.44753374
   57 O                    8.0000     3.02481463     2.46202604     3.26304059
   58 O                    8.0000     3.23984646     1.32621659     0.90235526
   59 O                    8.0000    -5.38634091     0.28523904     3.55205665
   60 O                    8.0000    -2.97883422     6.11078336     1.34212748
   61 O                    8.0000     1.22209674     3.72176345     4.79368444
   62 O                    8.0000    -1.14455667     1.93096681     4.87939245
   63 O                    8.0000    -5.90212149    -3.75123639     1.03311495
   64 O                    8.0000    -3.37690782    -3.30500630     1.47281216
   65 O                    8.0000    -2.40433517    -4.95177754     3.33424932
   66 O                    8.0000     1.11522126     6.28195655     0.39641452
   67 O                    8.0000     1.51899895     4.36070200     2.20121396
   68 O                    8.0000     0.47106255     2.07317692     2.90355452
   69 O                    8.0000    -2.13127589     1.83098086     2.40845125
   70 O                    8.0000    -3.17556778     3.53771868     0.69620491
   71 O                    8.0000    -0.82999572     4.63853998     1.05520941
   72 O                    8.0000     1.20771530     3.80386437    -0.38566848
   73 O                    8.0000    -2.28388147     1.20037505    -0.13499818
   74 O                    8.0000    -1.42411859     4.31126038    -3.39809016
   75 O                    8.0000    -2.18435750     5.28705147    -1.05668882
   76 O                    8.0000    -1.12693768    -2.76879704     2.70661610
   77 O                    8.0000    -4.46782017     1.32791133     1.35425536
   78 O                    8.0000     5.34852068     1.48685631     2.43216520
   79 H                    1.0000     5.83742610     1.93182503     3.13094334
   80 O                    8.0000     5.18985956    -4.51812997     1.20221369
   81 H                    1.0000     6.13319054    -4.55485107     1.36973870
   82 O                    8.0000     6.51249320     0.20722508     0.29086318
   83 H                    1.0000     6.22983845     0.72831902     1.06294400
   84 O                    8.0000     3.42678980    -2.26750905     4.59746141
   85 H                    1.0000     3.02872018    -2.95798847     5.13020227
   86 H                    1.0000    -2.76888691     6.71807071    -3.99684662
   87 H                    1.0000    -5.15537755    -1.95586949    -3.99100179
   88 H                    1.0000     0.06596684     2.93911423    -5.72683989
   89 H                    1.0000     0.49558189    -4.01911996    -3.58490094
   90 H                    1.0000     2.16618182     5.46525486    -2.68222722
   91 H                    1.0000     2.86235649    -4.54126143    -3.06785013
   92 H                    1.0000    -3.76834966    -4.26910269    -3.97194380
   93 H                    1.0000     0.44176367     6.42547343    -1.30608266
   94 H                    1.0000     7.19607068    -0.45831869    -2.36261470
   95 H                    1.0000    -0.58088561    -7.82959539    -0.56868689
   96 H                    1.0000    -7.34487695     1.33567591     1.22187014
   97 H                    1.0000    -1.93917751     1.79677078     5.40326243
   98 H                    1.0000    -3.86748285     6.46253387     1.26707363
   99 H                    1.0000    -6.76298015    -3.74561284     0.61040774
  100 H                    1.0000    -5.75523981    -0.36462119     4.15484238
  101 H                    1.0000     0.46172282     3.35790159     5.27068333
  102 H                    1.0000     1.44085471     6.96347205     0.99076825
  103 H                    1.0000    -2.75372797    -5.84285293     3.27885008
  104 C                    6.0000     2.05782942    -0.07028292    -5.41483337
  105 C                    6.0000     3.06414881    -0.27128096    -4.27794433
  106 O                    8.0000     2.46131542    -1.02822224    -3.19289074
  107 C                    6.0000     4.34371360    -0.96533867    -4.75239622
  108 H                    1.0000     1.19105016     0.48297072    -5.07847809
  109 H                    1.0000     1.72789785    -1.03147555    -5.79796918
  110 H                    1.0000     2.52067770     0.47575224    -6.22993350
  111 H                    1.0000     3.30750719     0.67702879    -3.82901504
  112 H                    1.0000     2.25645684    -1.93199324    -3.46659364
  113 H                    1.0000     4.10613276    -1.93399627    -5.18557036
  114 H                    1.0000     5.02134977    -1.10505534    -3.92221662
  115 H                    1.0000     4.83448952    -0.37182668    -5.51569327

      Atomic Mass 
      ----------- 

      O                 15.994910
      Si                27.976930
      Al                26.981540
      H                  1.007825
      C                 12.000000


 Effective nuclear repulsion energy (a.u.)   32324.4145893406

            Nuclear Dipole moment (a.u.) 
            ----------------------------
        X                 Y               Z
 ---------------- ---------------- ----------------
    -0.0000000000    -0.0000000000     0.0000000000



                                Z-matrix (autoz)
                                -------- 

 Units are Angstrom for bonds and degrees for angles

      Type          Name      I     J     K     L     M      Value
      ----------- --------  ----- ----- ----- ----- ----- ----------
    1 Stretch                  1    40                       1.61449
    2 Stretch                  1    86                       0.95912
    3 Stretch                  2    12                       1.63244
    4 Stretch                  2    16                       1.65619
    5 Stretch                  2    34                       1.58494
    6 Stretch                  2    55                       1.60684
    7 Stretch                  3    13                       1.59472
    8 Stretch                  3    18                       1.60836
    9 Stretch                  3    20                       1.64403
   10 Stretch                  3    35                       1.60977
   11 Stretch                  4    13                       1.61884
   12 Stretch                  4    14                       1.60478
   13 Stretch                  4    15                       1.61214
   14 Stretch                  4    80                       1.60934
   15 Stretch                  5    14                       1.62042
   16 Stretch                  5    19                       1.62128
   17 Stretch                  5    21                       1.61766
   18 Stretch                  5    82                       1.60237
   19 Stretch                  6    23                       1.61243
   20 Stretch                  6    24                       1.62072
   21 Stretch                  6    28                       1.60126
   22 Stretch                  6    72                       1.62662
   23 Stretch                  7    19                       1.60108
   24 Stretch                  7    24                       1.60417
   25 Stretch                  7    25                       1.62061
   26 Stretch                  7    58                       1.62157
   27 Stretch                  8    17                       1.60268
   28 Stretch                  8    18                       1.60741
   29 Stretch                  8    25                       1.58796
   30 Stretch                  8    26                       1.66783
   31 Stretch                  9    27                       1.58692
   32 Stretch                  9    28                       1.62055
   33 Stretch                  9    33                       1.61901
   34 Stretch                  9    74                       1.63115
   35 Stretch                 10    16                       1.65993
   36 Stretch                 10    22                       1.59786
   37 Stretch                 10    29                       1.60450
   38 Stretch                 10    30                       1.61664
   39 Stretch                 11    30                       1.61275
   40 Stretch                 11    31                       1.60871
   41 Stretch                 11    32                       1.60244
   42 Stretch                 11    35                       1.62923
   43 Stretch                 12    87                       0.96160
   44 Stretch                 15    39                       1.61130
   45 Stretch                 17    38                       1.61884
   46 Stretch                 20   112                       2.29374
   47 Stretch                 20    91                       0.96323
   48 Stretch                 21    94                       0.96015
   49 Stretch                 22    89                       0.96854
   50 Stretch                 23    90                       0.96675
   51 Stretch                 26    36                       1.86509
   52 Stretch                 26    37                       1.02119
   53 Stretch                 27    36                       1.69409
   54 Stretch                 29    92                       0.96783
   55 Stretch                 31    95                       0.95843
   56 Stretch                 32    44                       1.61516
   57 Stretch                 33    88                       0.95913
   58 Stretch                 34    36                       1.73191
   59 Stretch                 36    73                       1.70505
   60 Stretch                 38    50                       1.60980
   61 Stretch                 38    54                       1.60874
   62 Stretch                 38    76                       1.60150
   63 Stretch                 39    50                       1.61435
   64 Stretch                 39    52                       1.61167
   65 Stretch                 39    84                       1.60838
   66 Stretch                 40    51                       1.62854
   67 Stretch                 40    74                       1.61303
   68 Stretch                 40    75                       1.62051
   69 Stretch                 41    52                       1.60737
   70 Stretch                 41    57                       1.61137
   71 Stretch                 41    58                       1.60074
   72 Stretch                 41    78                       1.63558
   73 Stretch                 42    53                       1.61991
   74 Stretch                 42    56                       1.61078
   75 Stretch                 42    59                       1.62142
   76 Stretch                 42    77                       1.60781
   77 Stretch                 43    55                       1.61738
   78 Stretch                 43    56                       1.60688
   79 Stretch                 43    63                       1.61383
   80 Stretch                 43    64                       1.60507
   81 Stretch                 44    64                       1.60839
   82 Stretch                 44    65                       1.60879
   83 Stretch                 44    76                       1.61257
   84 Stretch                 45    66                       1.63817
   85 Stretch                 45    67                       1.61262
   86 Stretch                 45    71                       1.60827
   87 Stretch                 45    72                       1.60136
   88 Stretch                 46    57                       1.62116
   89 Stretch                 46    61                       1.60962
   90 Stretch                 46    67                       1.61919
   91 Stretch                 46    68                       1.62398
   92 Stretch                 47    54                       1.61584
   93 Stretch                 47    62                       1.62954
   94 Stretch                 47    68                       1.61337
   95 Stretch                 47    69                       1.59735
   96 Stretch                 48    69                       1.62151
   97 Stretch                 48    70                       1.62277
   98 Stretch                 48    73                       1.59064
   99 Stretch                 48    77                       1.61478
  100 Stretch                 49    60                       1.61314
  101 Stretch                 49    70                       1.61260
  102 Stretch                 49    71                       1.61818
  103 Stretch                 49    75                       1.61386
  104 Stretch                 51    93                       0.97439
  105 Stretch                 53    96                       0.95976
  106 Stretch                 59   100                       0.96008
  107 Stretch                 60    98                       0.95868
  108 Stretch                 61   101                       0.96855
  109 Stretch                 62    97                       0.96118
  110 Stretch                 63    99                       0.95906
  111 Stretch                 65   103                       0.95873
  112 Stretch                 66   102                       0.96112
  113 Stretch                 78    79                       0.96193
  114 Stretch                 80    81                       0.95879
  115 Stretch                 82    83                       0.97342
  116 Stretch                 84    85                       0.95866
  117 Stretch                104   105                       1.53153
  118 Stretch                104   108                       1.08191
  119 Stretch                104   109                       1.08607
  120 Stretch                104   110                       1.08479
  121 Stretch                105   106                       1.45386
  122 Stretch                105   107                       1.53105
  123 Stretch                105   111                       1.07706
  124 Stretch                106   112                       0.96627
  125 Stretch                107   113                       1.08737
  126 Stretch                107   114                       1.08070
  127 Stretch                107   115                       1.08432
  128 Bend                     1    40    51               110.82884
  129 Bend                     1    40    74               109.31102
  130 Bend                     1    40    75               110.26199
  131 Bend                     2    12    87               123.92329
  132 Bend                     2    16    10               134.71413
  133 Bend                     2    34    36               136.56647
  134 Bend                     2    55    43               159.94944
  135 Bend                     3    13     4               161.07702
  136 Bend                     3    18     8               161.91870
  137 Bend                     3    20   112               101.57224
  138 Bend                     3    20    91               123.80247
  139 Bend                     3    35    11               143.08744
  140 Bend                     4    14     5               155.06804
  141 Bend                     4    39    50               110.50061
  142 Bend                     4    39    52               105.57866
  143 Bend                     4    39    84               111.92509
  144 Bend                     4    80    81               126.87856
  145 Bend                     5    19     7               152.39368
  146 Bend                     5    21    94               124.17320
  147 Bend                     5    82    83               129.87255
  148 Bend                     6    23    90               118.58056
  149 Bend                     6    24     7               139.98711
  150 Bend                     6    28     9               162.15003
  151 Bend                     6    72    45               157.67584
  152 Bend                     7    25     8               164.37606
  153 Bend                     7    58    41               160.47680
  154 Bend                     8    17    38               161.87247
  155 Bend                     8    26    36               135.61687
  156 Bend                     8    26    37               114.64316
  157 Bend                     9    27    36               157.86149
  158 Bend                     9    33    88               126.12609
  159 Bend                     9    74    40               143.43686
  160 Bend                    10    22    89               132.53624
  161 Bend                    10    29    92               122.41372
  162 Bend                    10    30    11               154.42324
  163 Bend                    11    31    95               127.99231
  164 Bend                    11    32    44               173.10104
  165 Bend                    12     2    16               105.25993
  166 Bend                    12     2    34               113.84968
  167 Bend                    12     2    55               110.19239
  168 Bend                    13     3    18               111.71982
  169 Bend                    13     3    20               110.23981
  170 Bend                    13     3    35               111.94091
  171 Bend                    13     4    14               109.75200
  172 Bend                    13     4    15               107.31455
  173 Bend                    13     4    80               108.54335
  174 Bend                    14     4    15               108.72586
  175 Bend                    14     4    80               110.57242
  176 Bend                    14     5    19               106.15126
  177 Bend                    14     5    21               108.26655
  178 Bend                    14     5    82               111.97499
  179 Bend                    15     4    80               111.86608
  180 Bend                    15    39    50               108.21233
  181 Bend                    15    39    52               107.98491
  182 Bend                    15    39    84               111.89665
  183 Bend                    16     2    34               105.67070
  184 Bend                    16     2    55               108.15776
  185 Bend                    16    10    22               108.16317
  186 Bend                    16    10    29               106.24153
  187 Bend                    16    10    30               106.85301
  188 Bend                    17     8    18               107.88714
  189 Bend                    17     8    25               109.11484
  190 Bend                    17     8    26               107.90829
  191 Bend                    17    38    50               107.78136
  192 Bend                    17    38    54               108.49382
  193 Bend                    17    38    76               107.74026
  194 Bend                    18     3    20               105.83654
  195 Bend                    18     3    35               107.00780
  196 Bend                    18     8    25               113.97873
  197 Bend                    18     8    26               103.56888
  198 Bend                    19     5    21               111.31684
  199 Bend                    19     5    82               109.76647
  200 Bend                    19     7    24               112.73342
  201 Bend                    19     7    25               113.48938
  202 Bend                    19     7    58               104.94112
  203 Bend                    20   112   106               143.37436
  204 Bend                    20     3    35               109.87097
  205 Bend                    21     5    82               109.34169
  206 Bend                    22    10    29               113.57844
  207 Bend                    22    10    30               110.00580
  208 Bend                    23     6    24               110.01974
  209 Bend                    23     6    28               111.56655
  210 Bend                    23     6    72               110.78642
  211 Bend                    24     6    28               108.88434
  212 Bend                    24     6    72               106.24347
  213 Bend                    24     7    25               109.17870
  214 Bend                    24     7    58               110.11338
  215 Bend                    25     7    58               106.07552
  216 Bend                    25     8    26               114.01044
  217 Bend                    26    36    27               110.70796
  218 Bend                    26    36    34                96.43476
  219 Bend                    26    36    73               103.62291
  220 Bend                    27     9    28               109.91255
  221 Bend                    27     9    33               110.09025
  222 Bend                    27     9    74               112.00988
  223 Bend                    27    36    34               115.25522
  224 Bend                    27    36    73               115.03329
  225 Bend                    28     6    72               109.18034
  226 Bend                    28     9    33               109.80073
  227 Bend                    28     9    74               104.33416
  228 Bend                    29    10    30               111.64766
  229 Bend                    30    11    31               111.53015
  230 Bend                    30    11    32               110.29937
  231 Bend                    30    11    35               105.40681
  232 Bend                    31    11    32               108.51455
  233 Bend                    31    11    35               111.29148
  234 Bend                    32    11    35               109.77987
  235 Bend                    32    44    64               107.91141
  236 Bend                    32    44    65               111.00578
  237 Bend                    32    44    76               108.81123
  238 Bend                    33     9    74               110.54679
  239 Bend                    34     2    55               113.14185
  240 Bend                    34    36    73               113.42316
  241 Bend                    36    26    37               106.15690
  242 Bend                    36    73    48               155.28109
  243 Bend                    38    50    39               158.24631
  244 Bend                    38    54    47               147.75481
  245 Bend                    38    76    44               152.79978
  246 Bend                    39     4    13               109.42092
  247 Bend                    39     4    14               106.18278
  248 Bend                    39     4    80               112.33838
  249 Bend                    39    52    41               162.80123
  250 Bend                    39    84    85               127.68708
  251 Bend                    40     1    86               125.60213
  252 Bend                    40    51    93               127.25489
  253 Bend                    40    75    49               157.88071
  254 Bend                    41    57    46               137.37994
  255 Bend                    41    78    79               124.46605
  256 Bend                    42    53    96               124.82212
  257 Bend                    42    56    43               173.24786
  258 Bend                    42    59   100               125.12419
  259 Bend                    42    77    48               154.02888
  260 Bend                    43    63    99               126.86360
  261 Bend                    43    44    32               107.27837
  262 Bend                    43    44    65               111.98536
  263 Bend                    43    44    76               109.73154
  264 Bend                    44    43    55               108.82659
  265 Bend                    44    43    56               110.69509
  266 Bend                    44    43    63               107.36988
  267 Bend                    44    65   103               127.84771
  268 Bend                    45    66   102               125.13875
  269 Bend                    45    67    46               140.69764
  270 Bend                    45    71    49               149.01458
  271 Bend                    46    61   101               120.02169
  272 Bend                    46    68    47               143.55932
  273 Bend                    47    62    97               125.21891
  274 Bend                    47    69    48               158.42864
  275 Bend                    48    70    49               142.33873
  276 Bend                    49    60    98               127.51529
  277 Bend                    50    38    54               110.19104
  278 Bend                    50    38    76               110.92425
  279 Bend                    50    39    52               109.24505
  280 Bend                    50    39    84               110.48003
  281 Bend                    51    40    74               108.26542
  282 Bend                    51    40    75               108.18390
  283 Bend                    52    39    84               108.95821
  284 Bend                    52    41    57               111.42027
  285 Bend                    52    41    58               108.51947
  286 Bend                    52    41    78               109.86044
  287 Bend                    53    42    56               106.87849
  288 Bend                    53    42    59               111.97939
  289 Bend                    53    42    77               109.79917
  290 Bend                    54    38    76               111.57168
  291 Bend                    54    47    62               111.55815
  292 Bend                    54    47    68               108.66589
  293 Bend                    54    47    69               109.39205
  294 Bend                    55    43    56               108.47596
  295 Bend                    55    43    63               110.05155
  296 Bend                    55    43    64               109.18235
  297 Bend                    56    42    59               109.46763
  298 Bend                    56    42    77               111.50612
  299 Bend                    56    43    63               111.39266
  300 Bend                    56    43    64               109.86061
  301 Bend                    57    41    58               109.83313
  302 Bend                    57    41    78               109.61274
  303 Bend                    57    46    61               112.06551
  304 Bend                    57    46    67               109.47153
  305 Bend                    57    46    68               106.96760
  306 Bend                    58    41    78               107.50669
  307 Bend                    59    42    77               107.26164
  308 Bend                    60    49    70               111.11080
  309 Bend                    60    49    71               108.38475
  310 Bend                    60    49    75               110.89813
  311 Bend                    61    46    67               112.61785
  312 Bend                    61    46    68               108.12421
  313 Bend                    62    47    68               104.04423
  314 Bend                    62    47    69               111.19586
  315 Bend                    63    43    64               107.85550
  316 Bend                    64    44    65               112.10702
  317 Bend                    64    44    76               108.95399
  318 Bend                    65    44    76               107.98981
  319 Bend                    66    45    67               110.23462
  320 Bend                    66    45    71               108.23178
  321 Bend                    66    45    72               106.76281
  322 Bend                    67    45    71               109.37965
  323 Bend                    67    45    72               111.99103
  324 Bend                    67    46    68               107.31426
  325 Bend                    68    47    69               111.88784
  326 Bend                    69    48    70               108.53132
  327 Bend                    69    48    73               109.60270
  328 Bend                    69    48    77               107.64138
  329 Bend                    70    48    73               110.23596
  330 Bend                    70    48    77               109.45205
  331 Bend                    70    49    71               108.12318
  332 Bend                    70    49    75               111.53135
  333 Bend                    71    45    72               110.14798
  334 Bend                    71    49    75               106.59755
  335 Bend                    73    48    77               111.30034
  336 Bend                    74    40    75               109.95753
  337 Bend                    91    20   112               105.02257
  338 Bend                   104   105   106               110.48083
  339 Bend                   104   105   107               112.24687
  340 Bend                   104   105   111               110.01817
  341 Bend                   105   104   108               111.26883
  342 Bend                   105   104   109               110.20187
  343 Bend                   105   104   110               110.08910
  344 Bend                   105   106   112               111.31359
  345 Bend                   105   107   113               110.16204
  346 Bend                   105   107   114               110.15719
  347 Bend                   105   107   115               110.38225
  348 Bend                   106   105   107               109.98621
  349 Bend                   106   105   111               103.94660
  350 Bend                   107   105   111               109.84420
  351 Bend                   108   104   109               108.59432
  352 Bend                   108   104   110               108.54381
  353 Bend                   109   104   110               108.06083
  354 Bend                   113   107   114               109.13853
  355 Bend                   113   107   115               107.82227
  356 Bend                   114   107   115               109.13052
  357 Torsion                  1    40    51    93          94.53127
  358 Torsion                  1    40    74     9         168.44294
  359 Torsion                  1    40    75    49        -141.07332
  360 Torsion                  2    16    10    22         134.67188
  361 Torsion                  2    16    10    29          12.39230
  362 Torsion                  2    16    10    30        -106.92998
  363 Torsion                  2    34    36    26          14.30889
  364 Torsion                  2    34    36    27         130.83840
  365 Torsion                  2    34    36    73         -93.57985
  366 Torsion                  2    55    43    56          65.73083
  367 Torsion                  2    55    43    63        -172.17250
  368 Torsion                  2    55    43    64         -53.97144
  369 Torsion                  3    13     4    14         -98.09100
  370 Torsion                  3    13     4    15          19.89401
  371 Torsion                  3    13     4    80         140.96165
  372 Torsion                  3    18     8    17         -70.24665
  373 Torsion                  3    18     8    25          51.09551
  374 Torsion                  3    18     8    26         175.53065
  375 Torsion                  3    20   112   106          23.48349
  376 Torsion                  3    35    11    30          43.43986
  377 Torsion                  3    35    11    31         164.50091
  378 Torsion                  3    35    11    32         -75.34508
  379 Torsion                  4    13     3    18          24.32598
  380 Torsion                  4    13     3    20         141.71042
  381 Torsion                  4    13     3    35         -95.66785
  382 Torsion                  4    14     5    19         -13.10169
  383 Torsion                  4    14     5    21        -132.71449
  384 Torsion                  4    14     5    82         106.66890
  385 Torsion                  5    14     4    13          65.30143
  386 Torsion                  5    14     4    15         -51.80329
  387 Torsion                  5    14     4    80        -174.98332
  388 Torsion                  5    19     7    24         118.27546
  389 Torsion                  5    19     7    25        -116.94215
  390 Torsion                  5    19     7    58          -1.57239
  391 Torsion                  6    24     7    19         174.81878
  392 Torsion                  6    24     7    25          47.71353
  393 Torsion                  6    24     7    58         -68.36438
  394 Torsion                  6    28     9    27         -97.75498
  395 Torsion                  6    28     9    33         140.99854
  396 Torsion                  6    28     9    74          22.50799
  397 Torsion                  6    72    45    66           1.80537
  398 Torsion                  6    72    45    67        -118.93838
  399 Torsion                  6    72    45    71         119.09944
  400 Torsion                  7    19     5    14          87.38568
  401 Torsion                  7    19     5    21        -155.01454
  402 Torsion                  7    19     5    82         -33.81535
  403 Torsion                  7    24     6    23         154.28221
  404 Torsion                  7    24     6    28         -83.16241
  405 Torsion                  7    24     6    72          34.31070
  406 Torsion                  7    25     8    17          90.82641
  407 Torsion                  7    25     8    18         -29.83204
  408 Torsion                  7    25     8    26        -148.46687
  409 Torsion                  7    58    41    52         -44.17290
  410 Torsion                  7    58    41    57        -166.19548
  411 Torsion                  7    58    41    78          74.60034
  412 Torsion                  8    17    38    50          18.82556
  413 Torsion                  8    17    38    54         138.13151
  414 Torsion                  8    17    38    76        -100.93482
  415 Torsion                  8    18     3    13          -9.23037
  416 Torsion                  8    18     3    20        -129.23539
  417 Torsion                  8    18     3    35         113.61998
  418 Torsion                  8    25     7    19          26.30430
  419 Torsion                  8    25     7    24         152.97970
  420 Torsion                  8    25     7    58         -88.39141
  421 Torsion                  8    26    36    27          93.78352
  422 Torsion                  8    26    36    34        -146.10757
  423 Torsion                  8    26    36    73         -30.07056
  424 Torsion                  9    27    36    26         -64.03715
  425 Torsion                  9    27    36    34        -172.14496
  426 Torsion                  9    27    36    73          52.99230
  427 Torsion                  9    28     6    23         -83.22144
  428 Torsion                  9    28     6    24         155.16004
  429 Torsion                  9    28     6    72          39.56563
  430 Torsion                  9    74    40    51          47.61779
  431 Torsion                  9    74    40    75         -70.38231
  432 Torsion                 10    16     2    12         -30.34712
  433 Torsion                 10    16     2    34        -151.13298
  434 Torsion                 10    16     2    55          87.42878
  435 Torsion                 10    30    11    31        -162.84474
  436 Torsion                 10    30    11    32          76.49801
  437 Torsion                 10    30    11    35         -41.93955
  438 Torsion                 11    30    10    16         -57.11854
  439 Torsion                 11    30    10    22          60.07005
  440 Torsion                 11    30    10    29        -172.88112
  441 Torsion                 11    32    44    64         -34.96650
  442 Torsion                 11    32    44    65          88.24752
  443 Torsion                 11    32    44    76        -153.04727
  444 Torsion                 11    35     3    13         149.09804
  445 Torsion                 11    35     3    18          26.38522
  446 Torsion                 11    35     3    20         -88.07070
  447 Torsion                 12     2    34    36        -143.67695
  448 Torsion                 12     2    55    43        -179.21760
  449 Torsion                 13     3    20   112         -86.97977
  450 Torsion                 13     3    20    91          30.11678
  451 Torsion                 13     4    39    50           6.38146
  452 Torsion                 13     4    39    52        -111.62425
  453 Torsion                 13     4    39    84         129.96530
  454 Torsion                  4    13    15    39         173.49624
  455 Torsion                 13     4    80    81         141.85356
  456 Torsion                 14     4    39    50         124.76931
  457 Torsion                 14     4    39    52           6.76359
  458 Torsion                 14     4    39    84        -111.64685
  459 Torsion                  4    14    15    39         176.86502
  460 Torsion                 14     4    80    81          21.41369
  461 Torsion                 14     5    21    94        -146.53080
  462 Torsion                 14     5    82    83         -75.77920
  463 Torsion                 15     4    80    81         -99.92611
  464 Torsion                 15    39    50    38         -80.53930
  465 Torsion                 15    39    52    41          38.34129
  466 Torsion                 15    39    84    85         -89.94067
  467 Torsion                 16     2    12    87        -135.72972
  468 Torsion                 16     2    34    36         -28.65898
  469 Torsion                 16     2    55    43          66.21584
  470 Torsion                 16    10    22    89          98.75867
  471 Torsion                 16    10    29    92          11.05408
  472 Torsion                 17     8    26    36          62.23308
  473 Torsion                 17     8    26    37         -92.78428
  474 Torsion                 17    38    50    39          36.35911
  475 Torsion                 17    38    54    47         -28.09733
  476 Torsion                 17    38    76    44           2.57799
  477 Torsion                 18     3    20   112          33.98925
  478 Torsion                 18     3    20    91         151.08579
  479 Torsion                 18     8    17    38          47.91039
  480 Torsion                 18     8    26    36         176.44059
  481 Torsion                 18     8    26    37          21.42322
  482 Torsion                 19     5    21    94          97.15778
  483 Torsion                 19     5    82    83          41.85064
  484 Torsion                 19     7    58    41         -32.73900
  485 Torsion                 20   112   106   105         148.63273
  486 Torsion                 21     5    82    83         164.23061
  487 Torsion                 22    10    29    92        -107.72272
  488 Torsion                 23     6    72    45          12.17367
  489 Torsion                 24     6    23    90         178.39083
  490 Torsion                 24     6    72    45         131.64565
  491 Torsion                 24     7    58    41        -154.31749
  492 Torsion                 25     7    58    41          87.67282
  493 Torsion                 25     8    17    38         -76.40943
  494 Torsion                 25     8    26    36         -59.14487
  495 Torsion                 25     8    26    37         145.83777
  496 Torsion                 26     8    17    38         159.21819
  497 Torsion                 26    36    73    48        -157.41044
  498 Torsion                 27     9    33    88        -170.92320
  499 Torsion                 27     9    74    40          92.03205
  500 Torsion                 27    36    26    37        -109.77358
  501 Torsion                 27    36    73    48          81.60925
  502 Torsion                 28     6    23    90          57.43214
  503 Torsion                 28     6    72    45        -111.07843
  504 Torsion                 28     9    27    36          13.84770
  505 Torsion                 28     9    33    88         -49.78356
  506 Torsion                 28     9    74    40         -26.81387
  507 Torsion                 29    10    22    89        -143.57311
  508 Torsion                 30    10    22    89         -17.61097
  509 Torsion                 30    10    29    92         127.18999
  510 Torsion                 30    11    31    95          45.15020
  511 Torsion                 30    11    32    44          43.47776
  512 Torsion                 31    11    32    44         -78.96937
  513 Torsion                 32    11    31    95         166.84669
  514 Torsion                 32    44    43    55         -24.11248
  515 Torsion                 32    44    43    56        -143.23729
  516 Torsion                 32    44    43    63          94.97887
  517 Torsion                 43    64    32    44        -178.20445
  518 Torsion                 32    44    65   103         -45.03117
  519 Torsion                 32    44    76    38          49.02765
  520 Torsion                 33     9    27    36         134.92042
  521 Torsion                 33     9    74    40        -144.79395
  522 Torsion                 34     2    12    87         -20.46957
  523 Torsion                 34     2    55    43         -50.48369
  524 Torsion                 34    36    26    37          10.33532
  525 Torsion                 34    36    73    48         -54.07439
  526 Torsion                 35     3    20   112         149.19130
  527 Torsion                 35     3    20    91         -93.71215
  528 Torsion                 35    11    31    95         -72.25424
  529 Torsion                 35    11    32    44         159.20255
  530 Torsion                 36    27     9    74        -101.64826
  531 Torsion                 36    34     2    55          89.49800
  532 Torsion                 36    73    48    69         174.00483
  533 Torsion                 36    73    48    70         -66.59820
  534 Torsion                 36    73    48    77          55.04836
  535 Torsion                 37    26    36    73         126.37234
  536 Torsion                 38    50    39    52          36.79344
  537 Torsion                 38    50    39    84         156.64249
  538 Torsion                 38    54    47    62        -154.76855
  539 Torsion                 38    54    47    68         -40.63429
  540 Torsion                 38    54    47    69          81.78191
  541 Torsion                 38    76    44    64         -68.39266
  542 Torsion                 38    76    44    65         169.60962
  543 Torsion                 39    50    38    54         -81.86145
  544 Torsion                 39    50    38    76         154.08241
  545 Torsion                 39    52    41    57         134.57803
  546 Torsion                 39    52    41    58          13.52901
  547 Torsion                 39    52    41    78        -103.74875
  548 Torsion                 40    75    49    60         114.98296
  549 Torsion                 40    75    49    70        -120.60759
  550 Torsion                 40    75    49    71          -2.79800
  551 Torsion                 41    52    39    50         -79.13482
  552 Torsion                 41    52    39    84         160.08324
  553 Torsion                 41    57    46    61         149.25840
  554 Torsion                 41    57    46    67         -85.04668
  555 Torsion                 41    57    46    68          30.92381
  556 Torsion                 42    56    43    55          33.88366
  557 Torsion                 42    56    43    63         -87.39105
  558 Torsion                 42    56    43    64         153.16072
  559 Torsion                 42    77    48    69         -45.31274
  560 Torsion                 42    77    48    70        -163.08841
  561 Torsion                 42    77    48    73          74.81006
  562 Torsion                 43    56    42    53          40.35337
  563 Torsion                 43    56    42    59         161.82587
  564 Torsion                 43    56    42    77         -79.64768
  565 Torsion                 44    76    38    50        -115.17034
  566 Torsion                 44    76    38    54         121.56447
  567 Torsion                 45    67    46    57         113.80825
  568 Torsion                 45    67    46    61        -120.81465
  569 Torsion                 45    67    46    68          -1.94165
  570 Torsion                 45    71    49    60        -108.03663
  571 Torsion                 45    71    49    70         131.42351
  572 Torsion                 45    71    49    75          11.38949
  573 Torsion                 46    57    41    52         -82.49473
  574 Torsion                 46    57    41    58          37.78372
  575 Torsion                 46    57    41    78         155.68840
  576 Torsion                 46    67    45    66         171.27676
  577 Torsion                 46    67    45    71          52.38673
  578 Torsion                 46    67    45    72         -70.01416
  579 Torsion                 46    68    47    54        -130.08490
  580 Torsion                 46    68    47    62         -11.11824
  581 Torsion                 46    68    47    69         109.02395
  582 Torsion                 47    54    38    50          89.68432
  583 Torsion                 47    54    38    76        -146.63462
  584 Torsion                 47    68    46    57         128.98986
  585 Torsion                 47    68    46    61           8.11685
  586 Torsion                 47    68    46    67        -113.61233
  587 Torsion                 47    69    48    70        -120.17748
  588 Torsion                 47    69    48    73           0.26177
  589 Torsion                 47    69    48    77         121.45269
  590 Torsion                 48    69    47    54         -55.71439
  591 Torsion                 48    69    47    62        -179.37772
  592 Torsion                 48    69    47    68          64.75463
  593 Torsion                 48    70    49    60        -130.53477
  594 Torsion                 48    70    49    71         -11.71214
  595 Torsion                 48    70    49    75         105.17526
  596 Torsion                 48    77    42    53        -168.18641
  597 Torsion                 48    77    42    56         -49.92265
  598 Torsion                 48    77    42    59          69.91520
  599 Torsion                 49    70    48    69          50.51837
  600 Torsion                 49    70    48    73         -69.52727
  601 Torsion                 49    70    48    77         167.73563
  602 Torsion                 49    71    45    66          51.07446
  603 Torsion                 49    71    45    67         171.19927
  604 Torsion                 49    71    45    72         -65.30426
  605 Torsion                 49    75    40    51         -19.72671
  606 Torsion                 49    75    40    74          98.32382
  607 Torsion                 50    39     4    80        -114.24517
  608 Torsion                  4    15    50    39        -174.26898
  609 Torsion                 50    39    84    85          30.70197
  610 Torsion                 51    40     1    86         134.58768
  611 Torsion                 52    39     4    80         127.74911
  612 Torsion                  4    15    52    39        -175.97619
  613 Torsion                 52    39    84    85         150.72352
  614 Torsion                 52    41    78    79         -94.78368
  615 Torsion                 53    42    59   100          70.83540
  616 Torsion                 54    47    62    97         -70.82281
  617 Torsion                 55     2    12    87         107.87805
  618 Torsion                 55    43    63    99         -48.72604
  619 Torsion                 55    43    44    65        -146.14657
  620 Torsion                 55    43    44    76          93.94260
  621 Torsion                 43    55    64    44         177.44236
  622 Torsion                 56    42    53    96        -155.26520
  623 Torsion                 56    42    59   100         -47.50789
  624 Torsion                 56    43    63    99          71.62540
  625 Torsion                 56    43    44    65          94.72862
  626 Torsion                 56    43    44    76         -25.18221
  627 Torsion                 43    56    64    44        -179.79902
  628 Torsion                 57    41    78    79          27.96329
  629 Torsion                 57    46    61   101        -116.76290
  630 Torsion                 58    41    78    79         147.30841
  631 Torsion                 59    42    53    96          84.86475
  632 Torsion                 63    43    44    65         -27.05522
  633 Torsion                 63    43    44    76        -146.96605
  634 Torsion                 43    63    64    44        -177.74533
  635 Torsion                 64    43    63    99        -167.74200
  636 Torsion                 64    44    65   103          75.73619
  637 Torsion                 43    64    65    44         177.05878
  638 Torsion                 67    45    66   102         -21.09445
  639 Torsion                 67    46    61   101         119.28268
  640 Torsion                 68    46    61   101           0.88363
  641 Torsion                 68    47    62    97         172.20522
  642 Torsion                 69    47    62    97          51.59697
  643 Torsion                 70    49    60    98         -58.41953
  644 Torsion                 71    45    66   102          98.49390
  645 Torsion                 71    49    60    98        -177.08487
  646 Torsion                 72     6    23    90         -64.43194
  647 Torsion                 72    45    66   102        -142.95362
  648 Torsion                 74     9    33    88          64.79609
  649 Torsion                 74    40     1    86          15.33667
  650 Torsion                 74    40    51    93        -145.59063
  651 Torsion                 75    40     1    86        -105.65316
  652 Torsion                 75    40    51    93         -26.46415
  653 Torsion                 75    49    60    98          66.22850
  654 Torsion                 43    64    76    44        -178.91747
  655 Torsion                 76    44    65   103        -164.23033
  656 Torsion                 77    42    53    96         -34.17386
  657 Torsion                 77    42    59   100        -168.63960
  658 Torsion                 80     4    39    84           9.33867
  659 Torsion                  4    80    15    39        -170.18756
  660 Torsion                 82     5    21    94         -24.28932
  661 Torsion                  4    15    84    39         170.24769
  662 Torsion                 91    20   112   106        -106.52661
  663 Torsion                104   105   106   112          66.06963
  664 Torsion                104   105   107   113         -58.58569
  665 Torsion                104   105   107   114        -179.03831
  666 Torsion                104   105   107   115          60.37727
  667 Torsion                106   105   104   108          60.87452
  668 Torsion                106   105   104   109         -59.64513
  669 Torsion                106   105   104   110        -178.74455
  670 Torsion                106   105   107   113          64.85200
  671 Torsion                106   105   107   114         -55.60061
  672 Torsion                106   105   107   115        -176.18503
  673 Torsion                107   105   104   108        -175.96533
  674 Torsion                107   105   104   109          63.51501
  675 Torsion                107   105   104   110         -55.58441
  676 Torsion                107   105   106   112         -58.39421
  677 Torsion                108   104   105   111         -53.32415
  678 Torsion                109   104   105   111        -173.84380
  679 Torsion                110   104   105   111          67.05678
  680 Torsion                111   105   106   112        -175.94340
  681 Torsion                111   105   107   113         178.67482
  682 Torsion                111   105   107   114          58.22221
  683 Torsion                111   105   107   115         -62.36221


            XYZ format geometry
            -------------------
   115
 geometry
 O                    -2.20899270     6.81819552    -3.22457986
 Si                   -3.75533722    -2.00733567    -2.15283287
 Si                    1.82689757    -3.85888178    -1.10447814
 Si                    4.34384959    -3.23708549     0.71932316
 Si                    5.65705356    -0.73936554    -0.67856648
 Si                    1.83916501     3.41609445    -1.83370159
 Si                    2.97807555     0.87729399    -0.63369107
 Si                    0.45207188    -1.05059294    -0.54837556
 Si                   -0.76540396     2.82851651    -3.56611420
 Si                   -1.76004581    -4.20272416    -2.90506589
 Si                   -0.62153174    -5.52286007    -0.28227325
 O                    -4.61816261    -2.52919748    -3.43659740
 O                     3.21585326    -3.73132334    -0.33138582
 O                     5.30366890    -2.15933807     0.01752535
 O                     3.57764068    -2.52613571     1.94670558
 O                    -2.28339134    -2.75511954    -2.28385397
 O                    -0.07833146    -1.15095003     0.96066158
 O                     0.95722987    -2.51057853    -0.99225845
 O                     4.23561607    -0.03669619    -1.01666244
 O                     2.08925892    -4.09114830    -2.71073450
 O                     6.50363671    -1.03179809    -2.02563973
 O                    -0.44934123    -3.92621914    -3.77612460
 O                     2.65314473     4.66158609    -2.45507743
 O                     2.84406660     2.17183097    -1.57154752
 O                     1.57127552     0.07275350    -0.63255171
 O                    -0.86259586    -0.77416430    -1.53675048
 O                    -1.65376972     1.70262542    -2.88679038
 O                     0.66330900     2.93604812    -2.80887561
 O                    -2.98410994    -4.79409320    -3.75734594
 O                    -1.39767822    -5.14954648    -1.64579856
 O                    -0.71085089    -7.09727631     0.03580764
 O                    -1.24914604    -4.71777337     0.95293828
 O                    -0.53225287     2.48430520    -5.13083764
 O                    -3.44914104    -0.45242284    -2.17580458
 O                     0.92055151    -5.05383402    -0.51969413
 Al                   -2.13517842     0.57758997    -1.71525582
 H                    -1.28695970    -1.61723379    -1.92659730
 Si                   -0.16937768    -1.49600548     2.53967955
 Si                    2.92515065    -1.71129241     3.17413150
 Si                   -1.44243480     5.62184848    -2.45794204
 Si                    3.72647768     1.27693742     2.42653190
 Si                   -5.46367213     0.20685288     1.93437987
 Si                   -4.70119961    -2.69911558     0.79799013
 Si                   -2.05565527    -3.95119322     2.12368715
 Si                    0.75915764     4.74319685     0.83121574
 Si                    1.57660656     3.18863186     3.31687464
 Si                   -0.92149339     1.39593072     3.35643739
 Si                   -3.01385735     1.96330663     1.05462939
 Si                   -2.32883550     4.89639406     0.50249104
 O                     1.31898139    -1.82440925     3.05774184
 O                     0.09797055     6.03697065    -2.13089380
 O                     3.36047660    -0.16597053     3.03292485
 O                    -6.96501388     0.46965475     1.38572299
 O                    -0.75444608    -0.21057872     3.31000804
 O                    -4.44485935    -2.49505594    -0.78585839
 O                    -5.03945307    -1.26882202     1.44753374
 O                     3.02481463     2.46202604     3.26304059
 O                     3.23984646     1.32621659     0.90235526
 O                    -5.38634091     0.28523904     3.55205665
 O                    -2.97883422     6.11078336     1.34212748
 O                     1.22209674     3.72176345     4.79368444
 O                    -1.14455667     1.93096681     4.87939245
 O                    -5.90212149    -3.75123639     1.03311495
 O                    -3.37690782    -3.30500630     1.47281216
 O                    -2.40433517    -4.95177754     3.33424932
 O                     1.11522126     6.28195655     0.39641452
 O                     1.51899895     4.36070200     2.20121396
 O                     0.47106255     2.07317692     2.90355452
 O                    -2.13127589     1.83098086     2.40845125
 O                    -3.17556778     3.53771868     0.69620491
 O                    -0.82999572     4.63853998     1.05520941
 O                     1.20771530     3.80386437    -0.38566848
 O                    -2.28388147     1.20037505    -0.13499818
 O                    -1.42411859     4.31126038    -3.39809016
 O                    -2.18435750     5.28705147    -1.05668882
 O                    -1.12693768    -2.76879704     2.70661610
 O                    -4.46782017     1.32791133     1.35425536
 O                     5.34852068     1.48685631     2.43216520
 H                     5.83742610     1.93182503     3.13094334
 O                     5.18985956    -4.51812997     1.20221369
 H                     6.13319054    -4.55485107     1.36973870
 O                     6.51249320     0.20722508     0.29086318
 H                     6.22983845     0.72831902     1.06294400
 O                     3.42678980    -2.26750905     4.59746141
 H                     3.02872018    -2.95798847     5.13020227
 H                    -2.76888691     6.71807071    -3.99684662
 H                    -5.15537755    -1.95586949    -3.99100179
 H                     0.06596684     2.93911423    -5.72683989
 H                     0.49558189    -4.01911996    -3.58490094
 H                     2.16618182     5.46525486    -2.68222722
 H                     2.86235649    -4.54126143    -3.06785013
 H                    -3.76834966    -4.26910269    -3.97194380
 H                     0.44176367     6.42547343    -1.30608266
 H                     7.19607068    -0.45831869    -2.36261470
 H                    -0.58088561    -7.82959539    -0.56868689
 H                    -7.34487695     1.33567591     1.22187014
 H                    -1.93917751     1.79677078     5.40326243
 H                    -3.86748285     6.46253387     1.26707363
 H                    -6.76298015    -3.74561284     0.61040774
 H                    -5.75523981    -0.36462119     4.15484238
 H                     0.46172282     3.35790159     5.27068333
 H                     1.44085471     6.96347205     0.99076825
 H                    -2.75372797    -5.84285293     3.27885008
 C                     2.05782942    -0.07028292    -5.41483337
 C                     3.06414881    -0.27128096    -4.27794433
 O                     2.46131542    -1.02822224    -3.19289074
 C                     4.34371360    -0.96533867    -4.75239622
 H                     1.19105016     0.48297072    -5.07847809
 H                     1.72789785    -1.03147555    -5.79796918
 H                     2.52067770     0.47575224    -6.22993350
 H                     3.30750719     0.67702879    -3.82901504
 H                     2.25645684    -1.93199324    -3.46659364
 H                     4.10613276    -1.93399627    -5.18557036
 H                     5.02134977    -1.10505534    -3.92221662
 H                     4.83448952    -0.37182668    -5.51569327

 ==============================================================================
                                internuclear distances
 ------------------------------------------------------------------------------
       center one      |      center two      | atomic units |  angstroms
 ------------------------------------------------------------------------------
   12 O                |   2 Si               |     3.08486  |     1.63244
   13 O                |   3 Si               |     3.01359  |     1.59472
   13 O                |   4 Si               |     3.05916  |     1.61884
   14 O                |   4 Si               |     3.03259  |     1.60478
   14 O                |   5 Si               |     3.06214  |     1.62042
   15 O                |   4 Si               |     3.04650  |     1.61214
   16 O                |   2 Si               |     3.12975  |     1.65619
   16 O                |  10 Si               |     3.13681  |     1.65993
   17 O                |   8 Si               |     3.02863  |     1.60268
   18 O                |   3 Si               |     3.03937  |     1.60836
   18 O                |   8 Si               |     3.03757  |     1.60741
   19 O                |   5 Si               |     3.06377  |     1.62128
   19 O                |   7 Si               |     3.02560  |     1.60108
   20 O                |   3 Si               |     3.10677  |     1.64403
   21 O                |   5 Si               |     3.05694  |     1.61766
   22 O                |  10 Si               |     3.01951  |     1.59786
   23 O                |   6 Si               |     3.04704  |     1.61243
   24 O                |   6 Si               |     3.06272  |     1.62072
   24 O                |   7 Si               |     3.03144  |     1.60417
   25 O                |   7 Si               |     3.06251  |     1.62061
   25 O                |   8 Si               |     3.00080  |     1.58796
   26 O                |   8 Si               |     3.15174  |     1.66783
   27 O                |   9 Si               |     2.99884  |     1.58692
   28 O                |   6 Si               |     3.02595  |     1.60126
   28 O                |   9 Si               |     3.06240  |     1.62055
   29 O                |  10 Si               |     3.03207  |     1.60450
   30 O                |  10 Si               |     3.05501  |     1.61664
   30 O                |  11 Si               |     3.04766  |     1.61275
   31 O                |  11 Si               |     3.04002  |     1.60871
   32 O                |  11 Si               |     3.02817  |     1.60244
   33 O                |   9 Si               |     3.05949  |     1.61901
   34 O                |   2 Si               |     2.99510  |     1.58494
   35 O                |   3 Si               |     3.04202  |     1.60977
   35 O                |  11 Si               |     3.07879  |     1.62923
   36 Al               |  26 O                |     3.52451  |     1.86509
   36 Al               |  27 O                |     3.20137  |     1.69409
   36 Al               |  34 O                |     3.27284  |     1.73191
   37 H                |  26 O                |     1.92977  |     1.02119
   38 Si               |  17 O                |     3.05917  |     1.61884
   39 Si               |  15 O                |     3.04492  |     1.61130
   40 Si               |   1 O                |     3.05095  |     1.61449
   44 Si               |  32 O                |     3.05222  |     1.61516
   50 O                |  38 Si               |     3.04208  |     1.60980
   50 O                |  39 Si               |     3.05068  |     1.61435
   51 O                |  40 Si               |     3.07749  |     1.62854
   52 O                |  39 Si               |     3.04561  |     1.61167
   52 O                |  41 Si               |     3.03750  |     1.60737
   53 O                |  42 Si               |     3.06119  |     1.61991
   54 O                |  38 Si               |     3.04007  |     1.60874
   54 O                |  47 Si               |     3.05349  |     1.61584
   55 O                |   2 Si               |     3.03649  |     1.60684
   55 O                |  43 Si               |     3.05641  |     1.61738
   56 O                |  42 Si               |     3.04392  |     1.61078
   56 O                |  43 Si               |     3.03656  |     1.60688
   57 O                |  41 Si               |     3.04505  |     1.61137
   57 O                |  46 Si               |     3.06355  |     1.62116
   58 O                |   7 Si               |     3.06433  |     1.62157
   58 O                |  41 Si               |     3.02495  |     1.60074
   59 O                |  42 Si               |     3.06404  |     1.62142
   60 O                |  49 Si               |     3.04840  |     1.61314
   61 O                |  46 Si               |     3.04174  |     1.60962
   62 O                |  47 Si               |     3.07939  |     1.62954
   63 O                |  43 Si               |     3.04970  |     1.61383
   64 O                |  43 Si               |     3.03314  |     1.60507
   64 O                |  44 Si               |     3.03941  |     1.60839
   65 O                |  44 Si               |     3.04017  |     1.60879
   66 O                |  45 Si               |     3.09570  |     1.63817
   67 O                |  45 Si               |     3.04742  |     1.61262
   67 O                |  46 Si               |     3.05982  |     1.61919
   68 O                |  46 Si               |     3.06887  |     1.62398
   68 O                |  47 Si               |     3.04884  |     1.61337
   69 O                |  47 Si               |     3.01855  |     1.59735
   69 O                |  48 Si               |     3.06421  |     1.62151
   70 O                |  48 Si               |     3.06660  |     1.62277
   70 O                |  49 Si               |     3.04737  |     1.61260
   71 O                |  45 Si               |     3.03919  |     1.60827
   71 O                |  49 Si               |     3.05792  |     1.61818
   72 O                |   6 Si               |     3.07387  |     1.62662
   72 O                |  45 Si               |     3.02613  |     1.60136
   73 O                |  36 Al               |     3.22207  |     1.70505
   73 O                |  48 Si               |     3.00588  |     1.59064
   74 O                |   9 Si               |     3.08244  |     1.63115
   74 O                |  40 Si               |     3.04818  |     1.61303
   75 O                |  40 Si               |     3.06232  |     1.62051
   75 O                |  49 Si               |     3.04974  |     1.61386
   76 O                |  38 Si               |     3.02639  |     1.60150
   76 O                |  44 Si               |     3.04732  |     1.61257
   77 O                |  42 Si               |     3.03831  |     1.60781
   77 O                |  48 Si               |     3.05149  |     1.61478
   78 O                |  41 Si               |     3.09080  |     1.63558
   79 H                |  78 O                |     1.81779  |     0.96193
   80 O                |   4 Si               |     3.04122  |     1.60934
   81 H                |  80 O                |     1.81186  |     0.95879
   82 O                |   5 Si               |     3.02805  |     1.60237
   83 H                |  82 O                |     1.83949  |     0.97342
   84 O                |  39 Si               |     3.03940  |     1.60838
   85 H                |  84 O                |     1.81161  |     0.95866
   86 H                |   1 O                |     1.81247  |     0.95912
   87 H                |  12 O                |     1.81716  |     0.96160
   88 H                |  33 O                |     1.81250  |     0.95913
   89 H                |  22 O                |     1.83028  |     0.96854
   90 H                |  23 O                |     1.82690  |     0.96675
   91 H                |  20 O                |     1.82024  |     0.96323
   92 H                |  29 O                |     1.82894  |     0.96783
   93 H                |  51 O                |     1.84134  |     0.97439
   94 H                |  21 O                |     1.81443  |     0.96015
   95 H                |  31 O                |     1.81118  |     0.95843
   96 H                |  53 O                |     1.81368  |     0.95976
   97 H                |  62 O                |     1.81637  |     0.96118
   98 H                |  60 O                |     1.81163  |     0.95868
   99 H                |  63 O                |     1.81236  |     0.95906
  100 H                |  59 O                |     1.81429  |     0.96008
  101 H                |  61 O                |     1.83030  |     0.96855
  102 H                |  66 O                |     1.81626  |     0.96112
  103 H                |  65 O                |     1.81173  |     0.95873
  105 C                | 104 C                |     2.89418  |     1.53153
  106 O                | 105 C                |     2.74740  |     1.45386
  107 C                | 105 C                |     2.89326  |     1.53105
  108 H                | 104 C                |     2.04451  |     1.08191
  109 H                | 104 C                |     2.05237  |     1.08607
  110 H                | 104 C                |     2.04996  |     1.08479
  111 H                | 105 C                |     2.03534  |     1.07706
  112 H                | 106 O                |     1.82599  |     0.96627
  113 H                | 107 C                |     2.05484  |     1.08737
  114 H                | 107 C                |     2.04222  |     1.08070
  115 H                | 107 C                |     2.04906  |     1.08432
 ------------------------------------------------------------------------------
                         number of included internuclear distances:        126
 ==============================================================================



 ==============================================================================
                                 internuclear angles
 ------------------------------------------------------------------------------
        center 1       |       center 2       |       center 3       |  degrees
 ------------------------------------------------------------------------------
   40 Si               |   1 O                |  86 H                |   125.60
[...]
   62 O                |  47 Si               |  69 O                |   111.20
   68 O                |  47 Si               |  69 O                |   111.89
   69 O                |  48 Si               |  70 O                |   108.53
   69 O                |  48 Si               |  73 O                |   109.60
   69 O                |  48 Si               |  77 O                |   107.64
   70 O                |  48 Si               |  73 O                |   110.24
   70 O                |  48 Si               |  77 O                |   109.45
   73 O                |  48 Si               |  77 O                |   111.30
   60 O                |  49 Si               |  70 O                |   111.11
   60 O                |  49 Si               |  71 O                |   108.38
   60 O                |  49 Si               |  75 O                |   110.90
   70 O                |  49 Si               |  71 O                |   108.12
   70 O                |  49 Si               |  75 O                |   111.53
   71 O                |  49 Si               |  75 O                |   106.60
   38 Si               |  50 O                |  39 Si               |   158.25
   40 Si               |  51 O                |  93 H                |   127.25
   39 Si               |  52 O                |  41 Si               |   162.80
   42 Si               |  53 O                |  96 H                |   124.82
   38 Si               |  54 O                |  47 Si               |   147.75
    2 Si               |  55 O                |  43 Si               |   159.95
   42 Si               |  56 O                |  43 Si               |   173.25
   41 Si               |  57 O                |  46 Si               |   137.38
    7 Si               |  58 O                |  41 Si               |   160.48
   42 Si               |  59 O                | 100 H                |   125.12
   49 Si               |  60 O                |  98 H                |   127.52
   46 Si               |  61 O                | 101 H                |   120.02
   47 Si               |  62 O                |  97 H                |   125.22
   43 Si               |  63 O                |  99 H                |   126.86
   43 Si               |  64 O                |  44 Si               |   178.33
   44 Si               |  65 O                | 103 H                |   127.85
   45 Si               |  66 O                | 102 H                |   125.14
   45 Si               |  67 O                |  46 Si               |   140.70
   46 Si               |  68 O                |  47 Si               |   143.56
   47 Si               |  69 O                |  48 Si               |   158.43
   48 Si               |  70 O                |  49 Si               |   142.34
   45 Si               |  71 O                |  49 Si               |   149.01
    6 Si               |  72 O                |  45 Si               |   157.68
   36 Al               |  73 O                |  48 Si               |   155.28
    9 Si               |  74 O                |  40 Si               |   143.44
   40 Si               |  75 O                |  49 Si               |   157.88
   38 Si               |  76 O                |  44 Si               |   152.80
   42 Si               |  77 O                |  48 Si               |   154.03
   41 Si               |  78 O                |  79 H                |   124.47
    4 Si               |  80 O                |  81 H                |   126.88
    5 Si               |  82 O                |  83 H                |   129.87
   39 Si               |  84 O                |  85 H                |   127.69
  105 C                | 104 C                | 108 H                |   111.27
  105 C                | 104 C                | 109 H                |   110.20
  105 C                | 104 C                | 110 H                |   110.09
  108 H                | 104 C                | 109 H                |   108.59
  108 H                | 104 C                | 110 H                |   108.54
  109 H                | 104 C                | 110 H                |   108.06
  104 C                | 105 C                | 106 O                |   110.48
  104 C                | 105 C                | 107 C                |   112.25
  104 C                | 105 C                | 111 H                |   110.02
  106 O                | 105 C                | 107 C                |   109.99
  106 O                | 105 C                | 111 H                |   103.95
  107 C                | 105 C                | 111 H                |   109.84
  105 C                | 106 O                | 112 H                |   111.31
  105 C                | 107 C                | 113 H                |   110.16
  105 C                | 107 C                | 114 H                |   110.16
  105 C                | 107 C                | 115 H                |   110.38
  113 H                | 107 C                | 114 H                |   109.14
  113 H                | 107 C                | 115 H                |   107.82
  114 H                | 107 C                | 115 H                |   109.13
 ------------------------------------------------------------------------------
                            number of included internuclear angles:        216
 ==============================================================================





 Summary of "ao basis" -> "" (cartesian)
 ------------------------------------------------------------------------------
       Tag                 Description            Shells   Functions and Types
 ---------------- ------------------------------  ------  ---------------------
 *                           3-21g*                   on all atoms 


  xc_inp: hfexch multiplicative factor not found.
                              NWChem Property Module
                              ----------------------


  itol2e modified to match energy
  convergence criterion.

                                 NWChem DFT Module
                                 -----------------


                      Basis "ao basis" -> "ao basis" (cartesian)
                      -----
  O (Oxygen)
  ----------
            Exponent  Coefficients 
       -------------- ---------------------------------------------------------
  1 S  3.22037000E+02  0.059239
  1 S  4.84308000E+01  0.351500
  1 S  1.04206000E+01  0.707658

  2 S  7.40294000E+00 -0.404453
  2 S  1.57620000E+00  1.221560

  3 P  7.40294000E+00  0.244586
  3 P  1.57620000E+00  0.853955

  4 S  3.73684000E-01  1.000000

  5 P  3.73684000E-01  1.000000

  Si (Silicon)
  ------------
            Exponent  Coefficients 
       -------------- ---------------------------------------------------------
  1 S  9.10655000E+02  0.066082
  1 S  1.37336000E+02  0.386229
  1 S  2.97601000E+01  0.672380

  2 S  3.66716000E+01 -0.104511
  2 S  8.31729000E+00  0.107410
  2 S  2.21645000E+00  0.951446

  3 P  3.66716000E+01  0.113355
  3 P  8.31729000E+00  0.457578
  3 P  2.21645000E+00  0.607427

  4 S  1.07913000E+00 -0.376108
  4 S  3.02422000E-01  1.251650

  5 P  1.07913000E+00  0.067103
  5 P  3.02422000E-01  0.956883

  6 S  9.33392000E-02  1.000000

  7 P  9.33392000E-02  1.000000

  8 D  4.50000000E-01  1.000000

  Al (Aluminium)
  --------------
            Exponent  Coefficients 
       -------------- ---------------------------------------------------------
  1 S  7.75737000E+02  0.066835
  1 S  1.16952000E+02  0.389061
  1 S  2.53326000E+01  0.669468

  2 S  2.94796000E+01 -0.107902
  2 S  6.63314000E+00  0.146245
  2 S  1.72675000E+00  0.923730

  3 P  2.94796000E+01  0.117574
  3 P  6.63314000E+00  0.461174
  3 P  1.72675000E+00  0.605535

  4 S  9.46160000E-01 -0.320327
  4 S  2.02506000E-01  1.184120

  5 P  9.46160000E-01  0.051938
  5 P  2.02506000E-01  0.972660

  6 S  6.39088000E-02  1.000000

  7 P  6.39088000E-02  1.000000

  8 D  3.25000000E-01  1.000000

  H (Hydrogen)
  ------------
            Exponent  Coefficients 
       -------------- ---------------------------------------------------------
  1 S  5.44717800E+00  0.156285
  1 S  8.24547000E-01  0.904691

  2 S  1.83192000E-01  1.000000

  C (Carbon)
  ----------
            Exponent  Coefficients 
       -------------- ---------------------------------------------------------
  1 S  1.72256000E+02  0.061767
  1 S  2.59109000E+01  0.358794
  1 S  5.53335000E+00  0.700713

  2 S  3.66498000E+00 -0.395897
  2 S  7.70545000E-01  1.215840

  3 P  3.66498000E+00  0.236460
  3 P  7.70545000E-01  0.860619

  4 S  1.95857000E-01  1.000000

  5 P  1.95857000E-01  1.000000



 Summary of "ao basis" -> "ao basis" (cartesian)
 ------------------------------------------------------------------------------
       Tag                 Description            Shells   Functions and Types
 ---------------- ------------------------------  ------  ---------------------
 O                           3-21g*                  5        9   3s2p
 Si                          3-21g*                  8       19   4s3p1d
 Al                          3-21g*                  8       19   4s3p1d
 H                           3-21g*                  2        2   2s
 C                           3-21g*                  5        9   3s2p




 Summary of "ao basis" -> "ao basis" (cartesian)
 ------------------------------------------------------------------------------
       Tag                 Description            Shells   Functions and Types
 ---------------- ------------------------------  ------  ---------------------
 O                           3-21g*                  5        9   3s2p
 Si                          3-21g*                  8       19   4s3p1d
 Al                          3-21g*                  8       19   4s3p1d
 H                           3-21g*                  2        2   2s
 C                           3-21g*                  5        9   3s2p


  Caching 1-el integrals 
  itol2e modified to match energy
  convergence criterion.

            General Information
            -------------------
          SCF calculation type: DFT
          Wavefunction type:  closed shell.
          No. of atoms     :   115
          No. of electrons :   834
           Alpha electrons :   417
            Beta electrons :   417
          Charge           :     0
          Spin multiplicity:     1
          Use of symmetry is: off; symmetry adaption is: off
          Maximum number of iterations:  50
          This is a Direct SCF calculation.
          AO basis - number of functions:  1048
                     number of shells:   551
          Convergence on energy requested:  1.00D-07
          Convergence on density requested:  1.00D-05
          Convergence on gradient requested:  5.00D-04

              XC Information
              --------------
                     Hartree-Fock (Exact) Exchange  1.000          

          Convergence Information
          -----------------------
          Convergence aids based upon iterative change in 
          total energy or number of iterations. 
          Levelshifting, if invoked, occurs when the 
          HOMO/LUMO gap drops below (HL_TOL):  1.00D-02
          DIIS, if invoked, will attempt to extrapolate 
          using up to (NFOCK): 10 stored Fock matrices.

                    Damping( 0%)  Levelshifting(0.5)       DIIS
                  --------------- ------------------- ---------------
          dE  on:    start            ASAP                start   
          dE off:    2 iters         50 iters            50 iters 


      Screening Tolerance Information
      -------------------------------
          Density screening/tol_rho:  1.00D-11
          AO Gaussian exp screening on grid/accAOfunc:  16
          CD Gaussian exp screening on grid/accCDfunc:  20
          XC Gaussian exp screening on grid/accXCfunc:  20
          Schwarz screening/accCoul:  1.00D-08

 dft: using ZORA

      Superposition of Atomic Density Guess
      -------------------------------------

 Sum of atomic energies:      -11003.04391131
          Performing ZORA calculations
          ----------------------------


 Read atomic ZORA corrections from ./zeolite-cluster.zora_sf

 dft_zora_read: failed to open./zeolite-cluster.zora_sf
       Generating atomic ZORA corrections
       ----------------------------------

 In dft_scf:: zora:Knucl= F

 Grid_pts file          = ./zeolite-cluster.gridpts.00
 Record size in doubles =  12289        No. of grid_pts per rec  =   3070
 Max. records in memory =    156        Max. recs in file   =    120790

 Grid integrated density:     834.010009530680
 Requested integration accuracy:   0.10E-06

 Wrote atomic ZORA corrections to ./zeolite-cluster.zora_sf


      Superposition of Atomic Density Guess
      -------------------------------------

 Sum of atomic energies:      -11003.04391131

      Non-variational initial energy
      ------------------------------

 Total energy =  -11038.053950
 1-e energy   =  -79831.234122
 2-e energy   =   36468.765582
 HOMO         =      -0.344039
 LUMO         =      -0.044922

   Time after variat. SCF:   3832.2
   Time prior to 1st pass:   3832.2

           Memory utilization after 1st SCF pass: 
           Heap Space remaining (MW):       24.09            24093370
          Stack Space remaining (MW):      102.64           102641524

   convergence    iter        energy       DeltaE   RMS-Dens  Diis-err    time
 ---------------- ----- ----------------- --------- --------- ---------  ------
 d= 0,ls=0.0,diis     1 -11043.6285990263 -4.34D+04  2.56D-03  1.52D+01  3916.4
 d= 0,ls=0.0,diis     2 -11044.7697672175 -1.14D+00  7.54D-04  3.16D+00  4002.1
 d= 0,ls=0.0,diis     3 -11045.0222513050 -2.52D-01  1.97D-04  5.79D-02  4087.7
 d= 0,ls=0.0,diis     4 -11045.0299607098 -7.71D-03  3.77D-05  1.80D-03  4173.4
 d= 0,ls=0.0,diis     5 -11045.0300425146 -8.18D-05  2.35D-05  4.98D-04  4284.9
  Resetting Diis
 d= 0,ls=0.0,diis     6 -11045.0300947685 -5.23D-05  1.21D-05  2.39D-05  4395.2
 d= 0,ls=0.0,diis     7 -11045.0300990505 -4.28D-06  2.52D-06  2.17D-06  4506.8
 d= 0,ls=0.0,diis     8 -11045.0300992397 -1.89D-07  2.76D-07  1.53D-07  4616.8
 d= 0,ls=0.0,diis     9 -11045.0300992539 -1.42D-08  9.59D-08  3.14D-08  4728.1

      Commencing ZORA Property Calculations
      -------------------------------------

 Grid integrated density:     834.010009530680
 Requested integration accuracy:   0.10E-06
dia1(k,t,iat1,ispin)=(  1,  1,  1,  1)=(   390.27403448,   390.27403448) ppm
dia1(k,t,iat1,ispin)=(  1,  2,  1,  1)=(   -10.33769014,   -10.33769014) ppm
dia1(k,t,iat1,ispin)=(  1,  3,  1,  1)=(    13.13227484,    13.13227484) ppm
dia1(k,t,iat1,ispin)=(  2,  1,  1,  1)=(    -9.40273801,    -9.40273801) ppm
dia1(k,t,iat1,ispin)=(  2,  2,  1,  1)=(   396.06068910,   396.06068910) ppm
dia1(k,t,iat1,ispin)=(  2,  3,  1,  1)=(    -9.68397570,    -9.68397570) ppm
dia1(k,t,iat1,ispin)=(  3,  1,  1,  1)=(    13.23195156,    13.23195156) ppm
dia1(k,t,iat1,ispin)=(  3,  2,  1,  1)=(   -10.99641477,   -10.99641477) ppm
dia1(k,t,iat1,ispin)=(  3,  3,  1,  1)=(   395.89422909,   395.89422909) ppm
(dia2,par1)(k,t,iat1,spin)=(  1,  1,  1,  1)=(    -1.60744425,    -1.60744425,     8.74240917,     8.74240917) ppm
(dia2,par1)(k,t,iat1,spin)=(  2,  1,  1,  1)=(    -0.22228146,    -0.22228146,     8.54389056,     8.54389056) ppm
(dia2,par1)(k,t,iat1,spin)=(  3,  1,  1,  1)=(     2.53114486,     2.53114486,     8.80595177,     8.80595177) ppm
(dia2,par1)(k,t,iat1,spin)=(  1,  2,  1,  1)=(    -1.05363218,    -1.05363218,     9.91976026,     9.91976026) ppm
(dia2,par1)(k,t,iat1,spin)=(  2,  2,  1,  1)=(    -2.93254180,    -2.93254180,    -2.13744609,    -2.13744609) ppm
(dia2,par1)(k,t,iat1,spin)=(  3,  2,  1,  1)=(    -1.82561522,    -1.82561522,    15.43341099,    15.43341099) ppm
(dia2,par1)(k,t,iat1,spin)=(  1,  3,  1,  1)=(     2.34187979,     2.34187979,     0.73984271,     0.73984271) ppm
(dia2,par1)(k,t,iat1,spin)=(  2,  3,  1,  1)=(    -0.29035586,    -0.29035586,     3.53485384,     3.53485384) ppm
(dia2,par1)(k,t,iat1,spin)=(  3,  3,  1,  1)=(    -0.32192952,    -0.32192952,    -0.84051938,    -0.84051938) ppm
 Grid integrated density:     834.010009530680
 Requested integration accuracy:   0.10E-06
dia1(k,t,iat1,ispin)=(  1,  1,  2,  1)=(   857.53715510,   857.53715510) ppm
dia1(k,t,iat1,ispin)=(  1,  2,  2,  1)=(     1.14432516,     1.14432516) ppm
dia1(k,t,iat1,ispin)=(  1,  3,  2,  1)=(     0.59313588,     0.59313588) ppm
dia1(k,t,iat1,ispin)=(  2,  1,  2,  1)=(     1.29327050,     1.29327050) ppm
dia1(k,t,iat1,ispin)=(  2,  2,  2,  1)=(   857.58046679,   857.58046679) ppm
dia1(k,t,iat1,ispin)=(  2,  3,  2,  1)=(     1.66972575,     1.66972575) ppm
dia1(k,t,iat1,ispin)=(  3,  1,  2,  1)=(     0.52907067,     0.52907067) ppm
dia1(k,t,iat1,ispin)=(  3,  2,  2,  1)=(     2.05089559,     2.05089559) ppm
dia1(k,t,iat1,ispin)=(  3,  3,  2,  1)=(   856.28283461,   856.28283461) ppm
(dia2,par1)(k,t,iat1,spin)=(  1,  1,  2,  1)=(    12.42629799,    12.42629799,   -23.23137309,   -23.23137309) ppm
(dia2,par1)(k,t,iat1,spin)=(  2,  1,  2,  1)=(    -0.48826299,    -0.48826299,    -3.37881456,    -3.37881456) ppm
(dia2,par1)(k,t,iat1,spin)=(  3,  1,  2,  1)=(     0.52830993,     0.52830993,    -7.55664427,    -7.55664427) ppm
(dia2,par1)(k,t,iat1,spin)=(  1,  2,  2,  1)=(    -1.02900033,    -1.02900033,    -6.73938327,    -6.73938327) ppm
(dia2,par1)(k,t,iat1,spin)=(  2,  2,  2,  1)=(    11.40971262,    11.40971262,    -9.91143231,    -9.91143231) ppm
(dia2,par1)(k,t,iat1,spin)=(  3,  2,  2,  1)=(     0.79762353,     0.79762353,    -1.31766067,    -1.31766067) ppm
(dia2,par1)(k,t,iat1,spin)=(  1,  3,  2,  1)=(     0.71486746,     0.71486746,     0.38294241,     0.38294241) ppm
(dia2,par1)(k,t,iat1,spin)=(  2,  3,  2,  1)=(     0.39905651,     0.39905651,     4.87974692,     4.87974692) ppm
(dia2,par1)(k,t,iat1,spin)=(  3,  3,  2,  1)=(    10.91579793,    10.91579793,   -26.98741753,   -26.98741753) ppm
 Grid integrated density:     834.010009530680
 Requested integration accuracy:   0.10E-06
dia1(k,t,iat1,ispin)=(  1,  1,  3,  1)=(   859.67452674,   859.67452674) ppm
dia1(k,t,iat1,ispin)=(  1,  2,  3,  1)=(     1.12280747,     1.12280747) ppm
dia1(k,t,iat1,ispin)=(  1,  3,  3,  1)=(     0.87155383,     0.87155383) ppm
dia1(k,t,iat1,ispin)=(  2,  1,  3,  1)=(     0.87887138,     0.87887138) ppm
dia1(k,t,iat1,ispin)=(  2,  2,  3,  1)=(   856.98738878,   856.98738878) ppm
dia1(k,t,iat1,ispin)=(  2,  3,  3,  1)=(     1.29219891,     1.29219891) ppm
dia1(k,t,iat1,ispin)=(  3,  1,  3,  1)=(     1.16864565,     1.16864565) ppm
dia1(k,t,iat1,ispin)=(  3,  2,  3,  1)=(     1.22901387,     1.22901387) ppm
dia1(k,t,iat1,ispin)=(  3,  3,  3,  1)=(   853.89689528,   853.89689528) ppm
(dia2,par1)(k,t,iat1,spin)=(  1,  1,  3,  1)=(    12.00700809,    12.00700809,   -20.58590863,   -20.58590863) ppm
(dia2,par1)(k,t,iat1,spin)=(  2,  1,  3,  1)=(    -0.12503075,    -0.12503075,     8.36951894,     8.36951894) ppm
(dia2,par1)(k,t,iat1,spin)=(  3,  1,  3,  1)=(    -0.13598243,    -0.13598243,     0.99902519,     0.99902519) ppm
(dia2,par1)(k,t,iat1,spin)=(  1,  2,  3,  1)=(    -0.27502272,    -0.27502272,     9.40340814,     9.40340814) ppm
(dia2,par1)(k,t,iat1,spin)=(  2,  2,  3,  1)=(    12.38701730,    12.38701730,   -27.67441444,   -27.67441444) ppm
(dia2,par1)(k,t,iat1,spin)=(  3,  2,  3,  1)=(     0.62074230,     0.62074230,    -3.68806353,    -3.68806353) ppm
(dia2,par1)(k,t,iat1,spin)=(  1,  3,  3,  1)=(    -0.29496186,    -0.29496186,     2.95859192,     2.95859192) ppm
(dia2,par1)(k,t,iat1,spin)=(  2,  3,  3,  1)=(     0.93680589,     0.93680589,     1.84745498,     1.84745498) ppm
(dia2,par1)(k,t,iat1,spin)=(  3,  3,  3,  1)=(    11.52297019,    11.52297019,   -21.09912752,   -21.09912752) ppm
 Grid integrated density:     834.010009530680
 Requested integration accuracy:   0.10E-06
