 argument  1 = /home/hvandam/nwchem-1-srp-hpc/QA/tests/ZSM-5/xyz/cluster09-oh-h-4.0-nmr.nw



============================== echo of input deck ==============================
echo
start zeolite-cluster
memory stack 800 mb heap 200 mb global 6 gb

geometry
load cluster09-oh-h-4.0.xyz
end

geometry adjust
  zcoord
    bond 37 106 4.0 "oh-h" constant
  end
end


basis
  * library 3-21g*
end

scf
  direct
end

#set geometry:actlist 1:77
#set geometry:actlist 78:103

driver
  maxiter 200
end

property
  shielding
end

task scf property

================================================================================


                                         
                                         


             Northwest Computational Chemistry Package (NWChem) 7.0.1
             --------------------------------------------------------


                    Environmental Molecular Sciences Laboratory
                       Pacific Northwest National Laboratory
                                Richland, WA 99352

                              Copyright (c) 1994-2020
                       Pacific Northwest National Laboratory
                            Battelle Memorial Institute

             NWChem is an open-source computational chemistry package
                        distributed under the terms of the
                      Educational Community License (ECL) 2.0
             A copy of the license is included with this distribution
                              in the LICENSE.TXT file

                                  ACKNOWLEDGMENT
                                  --------------

            This software and its documentation were developed at the
            EMSL at Pacific Northwest National Laboratory, a multiprogram
            national laboratory, operated for the U.S. Department of Energy
            by Battelle under Contract Number DE-AC05-76RL01830. Support
            for this work was provided by the Department of Energy Office
            of Biological and Environmental Research, Office of Basic
            Energy Sciences, and the Office of Advanced Scientific Computing.


           Job information
           ---------------

    hostname        = node002
    program         = /home/hvandam/nwchem-1-srp-hpc/bin/LINUX64/nwchem
    date            = Wed Nov 23 22:03:08 2022

    compiled        = Fri_Jul_08_12:50:28_2022
    source          = /home/hvandam/nwchem-1-srp-hpc
    nwchem branch   = 7.0.0
    nwchem revision = nwchem_on_git-4025-gba861c8c44
    ga revision     = 5.8.1
    use scalapack   = F
    input           = /home/hvandam/nwchem-1-srp-hpc/QA/tests/ZSM-5/xyz/cluster09-oh-h-4.0-nmr.nw
    prefix          = zeolite-cluster.
    data base       = ./zeolite-cluster.db
    status          = startup
    nproc           =       16
    time left       =     -1s



           Memory information
           ------------------

    heap     =   26214400 doubles =    200.0 Mbytes
    stack    =  104857597 doubles =    800.0 Mbytes
    global   =  805306368 doubles =   6144.0 Mbytes (distinct from heap & stack)
    total    =  936378365 doubles =   7144.0 Mbytes
    verify   = yes
    hardfail = no 


           Directory information
           ---------------------

  0 permanent = .
  0 scratch   = .




                                NWChem Input Module
                                -------------------



 Scaling coordinates for geometry "geometry" by  1.889725989
 (inverse scale =  0.529177249)

 C1  symmetry detected

          ------
          auto-z
          ------
  autoz: The atoms group into disjoint clusters
 cluster   1:    1    2    3    4    5    6    7    8    9   10   11
                12   13   14   15   16   17   18   19   20   21   22
                23   24   25   26   27   28   29   30   31   32   33
                34   35   36   37   38   39   40   41   42   43   44
                45   46   47   48   49   50   51   52   53   54   55
                56   57   58   59   60   61   62   63   64   65   66
                67   68   69   70   71   72   73   74   75   76   77
                78   79   80   81   82   83   84   85   86   87   88
                89   90   91   92   93   94   95   96   97   98   99
               100  101  102  103
 cluster   2:  104  105  106  107  108  109  110  111  112  113  114
               115
 Connecting clusters   1   2 via atoms   20  112 r = 2.31
  autoz: regenerating connections with new bonds
  no constraints, skipping    0.0000000000000000     
  no constraints, skipping    0.0000000000000000     


                             Geometry "geometry" -> ""
                             -------------------------

 Output coordinates in angstroms (scale by  1.889725989 to convert to a.u.)

  No.       Tag          Charge          X              Y              Z
 ---- ---------------- ---------- -------------- -------------- --------------
    1 O                    8.0000    -2.20243943     6.83700595    -3.20701215
    2 Si                  14.0000    -3.75024404    -2.00402203    -2.16134750
    3 Si                  14.0000     1.80718630    -3.86590476    -1.06857984
    4 Si                  14.0000     4.35006354    -3.23344320     0.72972610
    5 Si                  14.0000     5.65573628    -0.73406659    -0.69925160
    6 Si                  14.0000     1.83528044     3.43674495    -1.82197517
    7 Si                  14.0000     2.98647456     0.88820661    -0.64661407
    8 Si                  14.0000     0.45634112    -1.03816196    -0.57557846
    9 Si                  14.0000    -0.76333362     2.84392055    -3.56498630
   10 Si                  14.0000    -1.75431390    -4.20386191    -2.89645277
   11 Si                  14.0000    -0.64553383    -5.54349051    -0.26256589
   12 O                    8.0000    -4.61263554    -2.53096870    -3.44324420
   13 O                    8.0000     3.18702035    -3.72327715    -0.28271730
   14 O                    8.0000     5.27498341    -2.14268153     0.00305596
   15 O                    8.0000     3.63497177    -2.53734632     1.99582971
   16 O                    8.0000    -2.27584769    -2.74814754    -2.29243845
   17 O                    8.0000    -0.07430750    -1.12011671     0.93474712
   18 O                    8.0000     0.94380361    -2.51014116    -0.99984502
   19 O                    8.0000     4.25094474    -0.00553498    -1.05292507
   20 O                    8.0000     2.08193495    -4.14889579    -2.66425689
   21 O                    8.0000     6.50850850    -1.05078807    -2.03690069
   22 O                    8.0000    -0.43563831    -3.94059430    -3.76021558
   23 O                    8.0000     2.63967968     4.68218137    -2.45491001
   24 O                    8.0000     2.84646430     2.19799192    -1.56099905
   25 O                    8.0000     1.58471960     0.07526742    -0.67248065
   26 O                    8.0000    -0.85708310    -0.75850464    -1.56493401
   27 O                    8.0000    -1.66429101     1.71918775    -2.89971499
   28 O                    8.0000     0.65355456     2.94545240    -2.78487508
   29 O                    8.0000    -2.97606464    -4.79639268    -3.75163526
   30 O                    8.0000    -1.40344921    -5.14437787    -1.62951112
   31 O                    8.0000    -0.71141366    -7.12920639     0.00098997
   32 O                    8.0000    -1.31163955    -4.79108860     0.98560682
   33 O                    8.0000    -0.51035119     2.49939784    -5.12620489
   34 O                    8.0000    -3.44841816    -0.44814674    -2.18875851
   35 O                    8.0000     0.89073210    -5.04019454    -0.45910577
   36 Al                  13.0000    -2.13805889     0.58780260    -1.73070610
   37 H                    1.0000    -1.28040628    -1.60270706    -1.95381495
   38 Si                  14.0000    -0.15654525    -1.49368654     2.50746568
   39 Si                  14.0000     2.93572011    -1.70956840     3.18807782
   40 Si                  14.0000    -1.43880287     5.63142326    -2.45241956
   41 Si                  14.0000     3.73198298     1.27203302     2.42338311
   42 Si                  14.0000    -5.47440012     0.21006845     1.92255485
   43 Si                  14.0000    -4.70588680    -2.69525746     0.78862714
   44 Si                  14.0000    -2.07359406    -3.95163535     2.13479531
   45 Si                  14.0000     0.75476209     4.75865707     0.84679279
   46 Si                  14.0000     1.57982903     3.18481333     3.31836761
   47 Si                  14.0000    -0.91373880     1.38541103     3.34784636
   48 Si                  14.0000    -3.01219329     1.96060428     1.05035656
   49 Si                  14.0000    -2.33243873     4.89524528     0.50515464
   50 O                    8.0000     1.33508289    -1.82465459     3.01176919
   51 O                    8.0000     0.10005203     6.04862412    -2.12048781
   52 O                    8.0000     3.37250998    -0.16470628     3.04752894
   53 O                    8.0000    -6.96922703     0.48455022     1.36259240
   54 O                    8.0000    -0.74448189    -0.22120037     3.29809675
   55 O                    8.0000    -4.43724794    -2.49133526    -0.79312499
   56 O                    8.0000    -5.05657336    -1.26666072     1.43451402
   57 O                    8.0000     3.02995601     2.46361153     3.25035634
   58 O                    8.0000     3.24273960     1.30204368     0.89939318
   59 O                    8.0000    -5.40984236     0.28415721     3.54089718
   60 O                    8.0000    -2.99457931     6.10992648     1.33488840
   61 O                    8.0000     1.22864545     3.70217093     4.80165356
   62 O                    8.0000    -1.13958196     1.91313194     4.87288558
   63 O                    8.0000    -5.90332250    -3.75324794     1.01523646
   64 O                    8.0000    -3.38505694    -3.29284837     1.47670388
   65 O                    8.0000    -2.43421082    -4.89257203     3.38953989
   66 O                    8.0000     1.10505684     6.30030739     0.41923311
   67 O                    8.0000     1.51213816     4.36872217     2.21619826
   68 O                    8.0000     0.47776348     2.06749552     2.89959707
   69 O                    8.0000    -2.12115179     1.82331224     2.39808491
   70 O                    8.0000    -3.18051326     3.53788211     0.70531085
   71 O                    8.0000    -0.83488445     4.64622978     1.06570553
   72 O                    8.0000     1.21167792     3.82644041    -0.37171875
   73 O                    8.0000    -2.28835166     1.20779747    -0.14915701
   74 O                    8.0000    -1.41778926     4.32963639    -3.40504434
   75 O                    8.0000    -2.17899203     5.27442457    -1.05559870
   76 O                    8.0000    -1.10628718    -2.77356080     2.65937251
   77 O                    8.0000    -4.46429620     1.32402665     1.35416856
   78 O                    8.0000     5.35356378     1.48660899     2.41848396
   79 H                    1.0000     5.84772643     1.91438795     3.12444709
   80 O                    8.0000     5.21819288    -4.51717758     1.16431074
   81 H                    1.0000     6.16348867    -4.54676461     1.32209704
   82 O                    8.0000     6.51900506     0.20393121     0.27221788
   83 H                    1.0000     6.23644300     0.72578733     1.04372407
   84 O                    8.0000     3.38755885    -2.24486518     4.63561743
   85 H                    1.0000     3.02251890    -2.97913361     5.13208197
   86 H                    1.0000    -2.81988907     6.74071043    -3.93463965
   87 H                    1.0000    -5.14643874    -1.96053632    -4.00395415
   88 H                    1.0000     0.07081251     2.97281663    -5.72441180
   89 H                    1.0000     0.50520545    -4.05634650    -3.55970944
   90 H                    1.0000     2.14641838     5.48233368    -2.68131159
   91 H                    1.0000     2.86768632    -4.59061702    -3.00338773
   92 H                    1.0000    -3.75885546    -4.27100054    -3.97016868
   93 H                    1.0000     0.43836020     6.44228324    -1.29597297
   94 H                    1.0000     7.19106390    -0.47541266    -2.39019356
   95 H                    1.0000    -0.62613635    -7.83603356    -0.64081062
   96 H                    1.0000    -7.35075995     1.35261542     1.21428754
   97 H                    1.0000    -1.92669642     1.76086814     5.40290322
   98 H                    1.0000    -3.92254495     6.34557531     1.38245881
   99 H                    1.0000    -6.76333349    -3.74940987     0.59067602
  100 H                    1.0000    -5.77888168    -0.36875209     4.14001490
  101 H                    1.0000     0.47041665     3.33158933     5.27693028
  102 H                    1.0000     1.41863869     6.98419302     1.01742291
  103 H                    1.0000    -2.79777239    -5.77963892     3.36975613
  104 C                    6.0000     2.08142132    -0.08031698    -5.38376658
  105 C                    6.0000     3.09355797    -0.33141679    -4.26210157
  106 O                    8.0000     2.49050487    -1.11488520    -3.19569210
  107 C                    6.0000     4.35972914    -1.02718780    -4.76882875
  108 H                    1.0000     1.22189700     0.46903355    -5.02324193
  109 H                    1.0000     1.73981593    -1.02373803    -5.79961402
  110 H                    1.0000     2.54432462     0.49070402    -6.18141928
  111 H                    1.0000     3.35384197     0.59897122    -3.78593070
  112 H                    1.0000     2.25267643    -1.99975455    -3.50191296
  113 H                    1.0000     4.10746371    -1.98631905    -5.21448283
  114 H                    1.0000     5.04859205    -1.18496295    -3.95112301
  115 H                    1.0000     4.84355147    -0.42423459    -5.52923657

      Atomic Mass 
      ----------- 

      O                 15.994910
      Si                27.976930
      Al                26.981540
      H                  1.007825
      C                 12.000000


 Effective nuclear repulsion energy (a.u.)   32305.4513335431

            Nuclear Dipole moment (a.u.) 
            ----------------------------
        X                 Y               Z
 ---------------- ---------------- ----------------
     0.0000000000     0.0000000000     0.0000000000



                                Z-matrix (autoz)
                                -------- 

 Units are Angstrom for bonds and degrees for angles

      Type          Name      I     J     K     L     M      Value
      ----------- --------  ----- ----- ----- ----- ----- ----------
    1 Stretch                  1    40                       1.61430
    2 Stretch                  1    86                       0.95914
    3 Stretch                  2    12                       1.63238
    4 Stretch                  2    16                       1.65673
    5 Stretch                  2    34                       1.58512
    6 Stretch                  2    55                       1.60670
    7 Stretch                  3    13                       1.59432
    8 Stretch                  3    18                       1.60880
    9 Stretch                  3    20                       1.64370
   10 Stretch                  3    35                       1.60944
   11 Stretch                  4    13                       1.61791
   12 Stretch                  4    14                       1.60415
   13 Stretch                  4    15                       1.61212
   14 Stretch                  4    80                       1.60950
   15 Stretch                  5    14                       1.61938
   16 Stretch                  5    19                       1.62151
   17 Stretch                  5    21                       1.61766
   18 Stretch                  5    82                       1.60276
   19 Stretch                  6    23                       1.61207
   20 Stretch                  6    24                       1.62022
   21 Stretch                  6    28                       1.60157
   22 Stretch                  6    72                       1.62603
   23 Stretch                  7    19                       1.60086
   24 Stretch                  7    24                       1.60351
   25 Stretch                  7    25                       1.62063
   26 Stretch                  7    58                       1.62082
   27 Stretch                  8    17                       1.60293
   28 Stretch                  8    18                       1.60759
   29 Stretch                  8    25                       1.58819
   30 Stretch                  8    26                       1.66797
   31 Stretch                  9    27                       1.58724
   32 Stretch                  9    28                       1.62063
   33 Stretch                  9    33                       1.61867
   34 Stretch                  9    74                       1.63133
   35 Stretch                 10    16                       1.66010
   36 Stretch                 10    22                       1.59822
   37 Stretch                 10    29                       1.60471
   38 Stretch                 10    30                       1.61642
   39 Stretch                 11    30                       1.61315
   40 Stretch                 11    31                       1.60882
   41 Stretch                 11    32                       1.60242
   42 Stretch                 11    35                       1.62851
   43 Stretch                 12    87                       0.96163
   44 Stretch                 15    39                       1.61109
   45 Stretch                 17    38                       1.61857
   46 Stretch                 20   112                       2.31293
   47 Stretch                 20    91                       0.96308
   48 Stretch                 21    94                       0.96008
   49 Stretch                 22    89                       0.96891
   50 Stretch                 23    90                       0.96685
   51 Stretch                 26    36                       1.86572
   52 Stretch                 26    37                       1.02133
   53 Stretch                 27    36                       1.69442
   54 Stretch                 29    92                       0.96776
   55 Stretch                 31    95                       0.95853
   56 Stretch                 32    44                       1.61428
   57 Stretch                 33    88                       0.95902
   58 Stretch                 34    36                       1.73206
   59 Stretch                 36    73                       1.70537
   60 Stretch                 38    50                       1.60898
   61 Stretch                 38    54                       1.60934
   62 Stretch                 38    76                       1.60099
   63 Stretch                 39    50                       1.61443
   64 Stretch                 39    52                       1.61156
   65 Stretch                 39    84                       1.60813
   66 Stretch                 40    51                       1.62859
   67 Stretch                 40    74                       1.61325
   68 Stretch                 40    75                       1.62063
   69 Stretch                 41    52                       1.60717
   70 Stretch                 41    57                       1.61139
   71 Stretch                 41    58                       1.60088
   72 Stretch                 41    78                       1.63572
   73 Stretch                 42    53                       1.61969
   74 Stretch                 42    56                       1.61043
   75 Stretch                 42    59                       1.62132
   76 Stretch                 42    77                       1.60757
   77 Stretch                 43    55                       1.61731
   78 Stretch                 43    56                       1.60656
   79 Stretch                 43    63                       1.61386
   80 Stretch                 43    64                       1.60473
   81 Stretch                 44    64                       1.60842
   82 Stretch                 44    65                       1.60928
   83 Stretch                 44    76                       1.61206
   84 Stretch                 45    66                       1.63774
   85 Stretch                 45    67                       1.61274
   86 Stretch                 45    71                       1.60858
   87 Stretch                 45    72                       1.60080
   88 Stretch                 46    57                       1.62100
   89 Stretch                 46    61                       1.60970
   90 Stretch                 46    67                       1.61895
   91 Stretch                 46    68                       1.62429
   92 Stretch                 47    54                       1.61627
   93 Stretch                 47    62                       1.62949
   94 Stretch                 47    68                       1.61321
   95 Stretch                 47    69                       1.59739
   96 Stretch                 48    69                       1.62147
   97 Stretch                 48    70                       1.62333
   98 Stretch                 48    73                       1.59044
   99 Stretch                 48    77                       1.61435
  100 Stretch                 49    60                       1.61318
  101 Stretch                 49    70                       1.61299
  102 Stretch                 49    71                       1.61830
  103 Stretch                 49    75                       1.61347
  104 Stretch                 51    93                       0.97429
  105 Stretch                 53    96                       0.95974
  106 Stretch                 59   100                       0.95991
  107 Stretch                 60    98                       0.95860
  108 Stretch                 61   101                       0.96857
  109 Stretch                 62    97                       0.96107
  110 Stretch                 63    99                       0.95911
  111 Stretch                 65   103                       0.95888
  112 Stretch                 66   102                       0.96118
  113 Stretch                 78    79                       0.96207
  114 Stretch                 80    81                       0.95883
  115 Stretch                 82    83                       0.97334
  116 Stretch                 84    85                       0.95858
  117 Stretch                104   105                       1.53154
  118 Stretch                104   108                       1.08192
  119 Stretch                104   109                       1.08612
  120 Stretch                104   110                       1.08471
  121 Stretch                105   106                       1.45421
  122 Stretch                105   107                       1.53103
  123 Stretch                105   111                       1.07708
  124 Stretch                106   112                       0.96609
  125 Stretch                107   113                       1.08728
  126 Stretch                107   114                       1.08077
  127 Stretch                107   115                       1.08437
  128 Bend                     1    40    51               110.54465
  129 Bend                     1    40    74               109.43671
  130 Bend                     1    40    75               110.56965
  131 Bend                     2    12    87               124.03270
  132 Bend                     2    16    10               134.60598
  133 Bend                     2    34    36               136.59769
  134 Bend                     2    55    43               160.41015
  135 Bend                     3    13     4               163.27139
  136 Bend                     3    18     8               161.01997
  137 Bend                     3    20   112               101.76777
  138 Bend                     3    20    91               123.86104
  139 Bend                     3    35    11               143.93646
  140 Bend                     4    14     5               157.44160
  141 Bend                     4    39    50               108.56673
  142 Bend                     4    39    52               105.54906
  143 Bend                     4    39    84               113.97418
  144 Bend                     4    80    81               126.92795
  145 Bend                     5    19     7               151.61584
  146 Bend                     5    21    94               124.17536
  147 Bend                     5    82    83               129.63176
  148 Bend                     6    23    90               118.47234
  149 Bend                     6    24     7               140.43074
  150 Bend                     6    28     9               162.49991
  151 Bend                     6    72    45               158.11464
  152 Bend                     7    25     8               164.84412
  153 Bend                     7    58    41               162.09401
  154 Bend                     8    17    38               160.76195
  155 Bend                     8    26    36               135.58849
  156 Bend                     8    26    37               114.43387
  157 Bend                     9    27    36               157.07643
  158 Bend                     9    33    88               126.24703
  159 Bend                     9    74    40               142.94188
  160 Bend                    10    22    89               132.04157
  161 Bend                    10    29    92               122.39236
  162 Bend                    10    30    11               155.52016
  163 Bend                    11    31    95               127.84194
  164 Bend                    11    32    44               174.20685
  165 Bend                    12     2    16               105.25010
  166 Bend                    12     2    34               113.82035
  167 Bend                    12     2    55               110.17764
  168 Bend                    13     3    18               111.59322
  169 Bend                    13     3    20               110.44136
  170 Bend                    13     3    35               111.80383
  171 Bend                    13     4    14               109.68625
  172 Bend                    13     4    15               107.65728
  173 Bend                    13     4    80               108.37420
  174 Bend                    14     4    15               108.53722
  175 Bend                    14     4    80               110.71117
  176 Bend                    14     5    19               106.36238
  177 Bend                    14     5    21               108.19538
  178 Bend                    14     5    82               111.89092
  179 Bend                    15     4    80               111.81373
  180 Bend                    15    39    50               108.23243
  181 Bend                    15    39    52               108.08080
  182 Bend                    15    39    84               111.90995
  183 Bend                    16     2    34               105.66681
  184 Bend                    16     2    55               108.16062
  185 Bend                    16    10    22               108.14383
  186 Bend                    16    10    29               106.17056
  187 Bend                    16    10    30               107.05142
  188 Bend                    17     8    18               107.59190
  189 Bend                    17     8    25               109.18001
  190 Bend                    17     8    26               107.86491
  191 Bend                    17    38    50               107.75366
  192 Bend                    17    38    54               108.26596
  193 Bend                    17    38    76               107.86929
  194 Bend                    18     3    20               106.03758
  195 Bend                    18     3    35               107.04363
  196 Bend                    18     8    25               114.22931
  197 Bend                    18     8    26               103.63589
  198 Bend                    19     5    21               111.36544
  199 Bend                    19     5    82               109.62661
  200 Bend                    19     7    24               112.34979
  201 Bend                    19     7    25               113.52150
  202 Bend                    19     7    58               105.05540
  203 Bend                    20   112   106               138.97718
  204 Bend                    20     3    35               109.70549
  205 Bend                    21     5    82               109.38118
  206 Bend                    22    10    29               113.64009
  207 Bend                    22    10    30               109.89843
  208 Bend                    23     6    24               110.02913
  209 Bend                    23     6    28               111.66112
  210 Bend                    23     6    72               110.87873
  211 Bend                    24     6    28               108.83269
  212 Bend                    24     6    72               106.19593
  213 Bend                    24     7    25               108.97224
  214 Bend                    24     7    58               110.43639
  215 Bend                    25     7    58               106.26341
  216 Bend                    25     8    26               113.93665
  217 Bend                    26    36    27               110.55761
  218 Bend                    26    36    34                96.39192
  219 Bend                    26    36    73               103.91306
  220 Bend                    27     9    28               109.80991
  221 Bend                    27     9    33               110.00803
  222 Bend                    27     9    74               112.11977
  223 Bend                    27    36    34               115.36838
  224 Bend                    27    36    73               114.94295
  225 Bend                    28     6    72               109.07292
  226 Bend                    28     9    33               109.93594
  227 Bend                    28     9    74               104.26995
  228 Bend                    29    10    30               111.59941
  229 Bend                    30    11    31               111.31134
  230 Bend                    30    11    32               110.39998
  231 Bend                    30    11    35               105.33672
  232 Bend                    31    11    32               108.55247
  233 Bend                    31    11    35               111.28550
  234 Bend                    32    11    35               109.93997
  235 Bend                    32    44    64               107.85345
  236 Bend                    32    44    65               110.90225
  237 Bend                    32    44    76               109.17486
  238 Bend                    33     9    74               110.55510
  239 Bend                    34     2    55               113.19424
  240 Bend                    34    36    73               113.32986
  241 Bend                    36    26    37               106.14372
  242 Bend                    36    73    48               155.73234
  243 Bend                    38    50    39               159.83644
  244 Bend                    38    54    47               147.07061
  245 Bend                    38    76    44               155.40859
  246 Bend                    39     4    13               107.77746
  247 Bend                    39     4    14               106.10133
  248 Bend                    39     4    80               114.09701
  249 Bend                    39    52    41               162.07237
  250 Bend                    39    84    85               127.89198
  251 Bend                    40     1    86               125.74330
  252 Bend                    40    51    93               127.16344
  253 Bend                    40    75    49               158.27131
  254 Bend                    41    57    46               137.75477
  255 Bend                    41    78    79               124.42565
  256 Bend                    42    53    96               125.00110
  257 Bend                    42    56    43               173.65217
  258 Bend                    42    59   100               125.21201
  259 Bend                    42    77    48               154.82006
  260 Bend                    43    63    99               126.90781
  261 Bend                    43    44    32               106.96761
  262 Bend                    43    44    65               111.82585
  263 Bend                    43    44    76               110.01311
  264 Bend                    44    43    55               108.84718
  265 Bend                    44    43    56               110.98784
  266 Bend                    44    43    63               107.02243
  267 Bend                    44    65   103               127.57346
  268 Bend                    45    66   102               125.24449
  269 Bend                    45    67    46               140.76148
  270 Bend                    45    71    49               148.93691
  271 Bend                    46    61   101               119.99883
  272 Bend                    46    68    47               143.55726
  273 Bend                    47    62    97               125.33383
  274 Bend                    47    69    48               158.87122
  275 Bend                    48    70    49               142.13958
  276 Bend                    49    60    98               127.44256
  277 Bend                    50    38    54               110.32504
  278 Bend                    50    38    76               110.84085
  279 Bend                    50    39    52               109.11900
  280 Bend                    50    39    84               110.67987
  281 Bend                    51    40    74               108.34628
  282 Bend                    51    40    75               108.19946
  283 Bend                    52    39    84               108.75021
  284 Bend                    52    41    57               111.36494
  285 Bend                    52    41    58               108.54820
  286 Bend                    52    41    78               109.88708
  287 Bend                    53    42    56               106.86235
  288 Bend                    53    42    59               111.96808
  289 Bend                    53    42    77               109.89123
  290 Bend                    54    38    76               111.63933
  291 Bend                    54    47    62               111.42254
  292 Bend                    54    47    68               108.74788
  293 Bend                    54    47    69               109.47233
  294 Bend                    55    43    56               108.50147
  295 Bend                    55    43    63               110.07369
  296 Bend                    55    43    64               109.24397
  297 Bend                    56    42    59               109.51565
  298 Bend                    56    42    77               111.42254
  299 Bend                    56    43    63               111.37894
  300 Bend                    56    43    64               109.78099
  301 Bend                    57    41    58               109.97135
  302 Bend                    57    41    78               109.65955
  303 Bend                    57    46    61               112.13730
  304 Bend                    57    46    67               109.52374
  305 Bend                    57    46    68               106.86437
  306 Bend                    58    41    78               107.31693
  307 Bend                    59    42    77               107.23157
  308 Bend                    60    49    70               110.73271
  309 Bend                    60    49    71               108.51391
  310 Bend                    60    49    75               111.07709
  311 Bend                    61    46    67               112.53036
  312 Bend                    61    46    68               108.09730
  313 Bend                    62    47    68               104.04417
  314 Bend                    62    47    69               111.27946
  315 Bend                    63    43    64               107.84057
  316 Bend                    64    44    65               112.07271
  317 Bend                    64    44    76               108.84938
  318 Bend                    65    44    76               107.94061
  319 Bend                    66    45    67               110.41557
  320 Bend                    66    45    71               108.22147
  321 Bend                    66    45    72               106.76245
  322 Bend                    67    45    71               109.36811
  323 Bend                    67    45    72               111.80768
  324 Bend                    67    46    68               107.40630
  325 Bend                    68    47    69               111.76926
  326 Bend                    69    48    70               108.41628
  327 Bend                    69    48    73               109.67573
  328 Bend                    69    48    77               107.72722
  329 Bend                    70    48    73               110.29090
  330 Bend                    70    48    77               109.26101
  331 Bend                    70    49    71               108.30513
  332 Bend                    70    49    75               111.58031
  333 Bend                    71    45    72               110.17924
  334 Bend                    71    49    75               106.45249
  335 Bend                    73    48    77               111.38722
  336 Bend                    74    40    75               109.70312
  337 Bend                    91    20   112               103.79317
  338 Bend                   104   105   106               110.56972
  339 Bend                   104   105   107               112.25002
  340 Bend                   104   105   111               109.99014
  341 Bend                   105   104   108               111.35954
  342 Bend                   105   104   109               110.23367
  343 Bend                   105   104   110               110.05038
  344 Bend                   105   106   112               111.29140
  345 Bend                   105   107   113               110.16132
  346 Bend                   105   107   114               110.06267
  347 Bend                   105   107   115               110.38907
  348 Bend                   106   105   107               109.92730
  349 Bend                   106   105   111               103.96902
  350 Bend                   107   105   111               109.81722
  351 Bend                   108   104   109               108.58795
  352 Bend                   108   104   110               108.46815
  353 Bend                   109   104   110               108.05522
  354 Bend                   113   107   114               109.22124
  355 Bend                   113   107   115               107.85438
  356 Bend                   114   107   115               109.10769
  357 Torsion                  1    40    51    93          93.54139
  358 Torsion                  1    40    74     9         169.37638
  359 Torsion                  1    40    75    49        -137.68632
  360 Torsion                  2    16    10    22         135.72206
  361 Torsion                  2    16    10    29          13.42046
  362 Torsion                  2    16    10    30        -105.90953
  363 Torsion                  2    34    36    26          14.87022
  364 Torsion                  2    34    36    27         131.24059
  365 Torsion                  2    34    36    73         -93.29823
  366 Torsion                  2    55    43    56          65.27880
  367 Torsion                  2    55    43    63        -172.61130
  368 Torsion                  2    55    43    64         -54.37825
  369 Torsion                  3    13     4    14         -92.94865
  370 Torsion                  3    13     4    15          24.97140
  371 Torsion                  3    13     4    80         146.07874
  372 Torsion                  3    18     8    17         -69.02605
  373 Torsion                  3    18     8    25          52.34898
  374 Torsion                  3    18     8    26         176.89002
  375 Torsion                  3    20   112   106          25.88061
  376 Torsion                  3    35    11    30          37.94925
  377 Torsion                  3    35    11    31         158.69938
  378 Torsion                  3    35    11    32         -80.99708
  379 Torsion                  4    13     3    18          21.78063
  380 Torsion                  4    13     3    20         139.46530
  381 Torsion                  4    13     3    35         -98.07698
  382 Torsion                  4    14     5    19         -15.10501
  383 Torsion                  4    14     5    21        -134.85283
  384 Torsion                  4    14     5    82         104.58078
  385 Torsion                  5    14     4    13          65.44309
  386 Torsion                  5    14     4    15         -51.92796
  387 Torsion                  5    14     4    80        -175.00616
  388 Torsion                  5    19     7    24         121.92036
  389 Torsion                  5    19     7    25        -113.86293
  390 Torsion                  5    19     7    58           1.81850
  391 Torsion                  6    24     7    19         173.87774
  392 Torsion                  6    24     7    25          47.17654
  393 Torsion                  6    24     7    58         -69.19138
  394 Torsion                  6    28     9    27        -102.44868
  395 Torsion                  6    28     9    33         136.38605
  396 Torsion                  6    28     9    74          17.85532
  397 Torsion                  6    72    45    66           0.56716
  398 Torsion                  6    72    45    67        -120.29049
  399 Torsion                  6    72    45    71         117.86529
  400 Torsion                  7    19     5    14          82.69362
  401 Torsion                  7    19     5    21        -159.64067
  402 Torsion                  7    19     5    82         -38.45419
  403 Torsion                  7    24     6    23         156.14522
  404 Torsion                  7    24     6    28         -81.20967
  405 Torsion                  7    24     6    72          36.08615
  406 Torsion                  7    25     8    17          85.31621
  407 Torsion                  7    25     8    18         -35.17800
  408 Torsion                  7    25     8    26        -154.03482
  409 Torsion                  7    58    41    52         -47.77725
  410 Torsion                  7    58    41    57        -169.83593
  411 Torsion                  7    58    41    78          70.93793
  412 Torsion                  8    17    38    50          22.95094
  413 Torsion                  8    17    38    54         142.27464
  414 Torsion                  8    17    38    76         -96.76642
  415 Torsion                  8    18     3    13         -10.26324
  416 Torsion                  8    18     3    20        -130.56747
  417 Torsion                  8    18     3    35         112.36249
  418 Torsion                  8    25     7    19          33.48435
  419 Torsion                  8    25     7    24         159.51215
  420 Torsion                  8    25     7    58         -81.48145
  421 Torsion                  8    26    36    27          94.39091
  422 Torsion                  8    26    36    34        -145.44685
  423 Torsion                  8    26    36    73         -29.45160
  424 Torsion                  9    27    36    26         -63.17693
  425 Torsion                  9    27    36    34        -171.20083
  426 Torsion                  9    27    36    73          54.05829
  427 Torsion                  9    28     6    23         -78.36312
  428 Torsion                  9    28     6    24         159.98047
  429 Torsion                  9    28     6    72          44.52935
  430 Torsion                  9    74    40    51          48.77293
  431 Torsion                  9    74    40    75         -69.14913
  432 Torsion                 10    16     2    12         -31.20121
  433 Torsion                 10    16     2    34        -151.94675
  434 Torsion                 10    16     2    55          86.55394
  435 Torsion                 10    30    11    31        -159.77785
  436 Torsion                 10    30    11    32          79.59421
  437 Torsion                 10    30    11    35         -39.04466
  438 Torsion                 11    30    10    16         -57.88122
  439 Torsion                 11    30    10    22          59.33962
  440 Torsion                 11    30    10    29        -173.64966
  441 Torsion                 11    32    44    64          15.76710
  442 Torsion                 11    32    44    65         138.83390
  443 Torsion                 11    32    44    76        -102.35623
  444 Torsion                 11    35     3    13         152.39591
  445 Torsion                 11    35     3    18          29.90142
  446 Torsion                 11    35     3    20         -84.72699
  447 Torsion                 12     2    34    36        -143.76175
  448 Torsion                 12     2    55    43        -178.56563
  449 Torsion                 13     3    20   112         -87.51793
  450 Torsion                 13     3    20    91          28.14406
  451 Torsion                 13     4    39    50           4.54297
  452 Torsion                 13     4    39    52        -112.33555
  453 Torsion                 13     4    39    84         128.39679
  454 Torsion                  4    13    15    39         170.87038
  455 Torsion                 13     4    80    81         143.89764
  456 Torsion                 14     4    39    50         121.97904
  457 Torsion                 14     4    39    52           5.10052
  458 Torsion                 14     4    39    84        -114.16714
  459 Torsion                  4    14    15    39        -176.40483
  460 Torsion                 14     4    80    81          23.56125
  461 Torsion                 14     5    21    94        -148.85117
  462 Torsion                 14     5    82    83         -75.12416
  463 Torsion                 15     4    80    81         -97.59881
  464 Torsion                 15    39    50    38         -86.92059
  465 Torsion                 15    39    52    41          41.11869
  466 Torsion                 15    39    84    85         -84.18394
  467 Torsion                 16     2    12    87        -135.17646
  468 Torsion                 16     2    34    36         -28.77319
  469 Torsion                 16     2    55    43          66.88572
  470 Torsion                 16    10    22    89         100.28335
  471 Torsion                 16    10    29    92          10.58036
  472 Torsion                 17     8    26    36          60.71391
  473 Torsion                 17     8    26    37         -93.46633
  474 Torsion                 17    38    50    39          41.21495
  475 Torsion                 17    38    54    47         -27.64856
  476 Torsion                 17    38    76    44          -0.56562
  477 Torsion                 18     3    20   112          33.53234
  478 Torsion                 18     3    20    91         149.19433
  479 Torsion                 18     8    17    38          44.28502
  480 Torsion                 18     8    26    36         174.60169
  481 Torsion                 18     8    26    37          20.42144
  482 Torsion                 19     5    21    94          94.59697
  483 Torsion                 19     5    82    83          42.62613
  484 Torsion                 19     7    58    41         -29.88968
  485 Torsion                 20   112   106   105         148.75460
  486 Torsion                 21     5    82    83         165.00204
  487 Torsion                 22    10    29    92        -108.16112
  488 Torsion                 23     6    72    45          13.01872
  489 Torsion                 24     6    23    90         178.43243
  490 Torsion                 24     6    72    45         132.52409
  491 Torsion                 24     7    58    41        -151.25243
  492 Torsion                 25     7    58    41          90.70600
  493 Torsion                 25     8    17    38         -80.19474
  494 Torsion                 25     8    26    36         -60.66791
  495 Torsion                 25     8    26    37         145.15184
  496 Torsion                 26     8    17    38         155.51058
  497 Torsion                 26    36    73    48        -157.21919
  498 Torsion                 27     9    33    88        -173.49371
  499 Torsion                 27     9    74    40          91.68489
  500 Torsion                 27    36    26    37        -109.99072
  501 Torsion                 27    36    73    48          81.83762
  502 Torsion                 28     6    23    90          57.46994
  503 Torsion                 28     6    72    45        -110.34051
  504 Torsion                 28     9    27    36          12.36622
  505 Torsion                 28     9    33    88         -52.44737
  506 Torsion                 28     9    74    40         -27.05611
  507 Torsion                 29    10    22    89        -142.11272
  508 Torsion                 30    10    22    89         -16.25391
  509 Torsion                 30    10    29    92         126.88669
  510 Torsion                 30    11    31    95          39.69492
  511 Torsion                 30    11    32    44          -6.60631
  512 Torsion                 31    11    32    44        -128.87047
  513 Torsion                 32    11    31    95         161.40313
  514 Torsion                 32    44    43    55         -27.44006
  515 Torsion                 32    44    43    56        -146.78596
  516 Torsion                 32    44    43    63          91.49361
  517 Torsion                 43    64    32    44        -177.24525
  518 Torsion                 32    44    65   103         -43.80578
  519 Torsion                 32    44    76    38          54.09647
  520 Torsion                 33     9    27    36         133.48813
  521 Torsion                 33     9    74    40        -145.16306
  522 Torsion                 34     2    12    87         -19.94202
  523 Torsion                 34     2    55    43         -49.84137
  524 Torsion                 34    36    26    37          10.17152
  525 Torsion                 34    36    73    48         -53.81949
  526 Torsion                 35     3    20   112         148.80298
  527 Torsion                 35     3    20    91         -95.53503
  528 Torsion                 35    11    31    95         -77.47779
  529 Torsion                 35    11    32    44         109.18558
  530 Torsion                 36    27     9    74        -103.05212
  531 Torsion                 36    34     2    55          89.41347
  532 Torsion                 36    73    48    69         173.70728
  533 Torsion                 36    73    48    70         -66.95795
  534 Torsion                 36    73    48    77          54.54267
  535 Torsion                 37    26    36    73         126.16677
  536 Torsion                 38    50    39    52          30.46848
  537 Torsion                 38    50    39    84         150.10451
  538 Torsion                 38    54    47    62        -155.34713
  539 Torsion                 38    54    47    68         -41.23936
  540 Torsion                 38    54    47    69          81.13291
  541 Torsion                 38    76    44    64         -63.40053
  542 Torsion                 38    76    44    65         174.73546
  543 Torsion                 39    50    38    54         -76.78997
  544 Torsion                 39    50    38    76         159.03070
  545 Torsion                 39    52    41    57         134.07676
  546 Torsion                 39    52    41    58          12.87156
  547 Torsion                 39    52    41    78        -104.20954
  548 Torsion                 40    75    49    60         112.25773
  549 Torsion                 40    75    49    70        -123.65667
  550 Torsion                 40    75    49    71          -5.68873
  551 Torsion                 41    52    39    50         -76.36615
  552 Torsion                 41    52    39    84         162.81105
  553 Torsion                 41    57    46    61         147.74783
  554 Torsion                 41    57    46    67         -86.57953
  555 Torsion                 41    57    46    68          29.47003
  556 Torsion                 42    56    43    55          29.20555
  557 Torsion                 42    56    43    63         -92.10496
  558 Torsion                 42    56    43    64         148.52610
  559 Torsion                 42    77    48    69         -45.74501
  560 Torsion                 42    77    48    70        -163.32805
  561 Torsion                 42    77    48    73          74.57409
  562 Torsion                 43    56    42    53          44.75630
  563 Torsion                 43    56    42    59         166.23295
  564 Torsion                 43    56    42    77         -75.29863
  565 Torsion                 44    76    38    50        -118.31086
  566 Torsion                 44    76    38    54         118.26268
  567 Torsion                 45    67    46    57         113.02878
  568 Torsion                 45    67    46    61        -121.52445
  569 Torsion                 45    67    46    68          -2.67634
  570 Torsion                 45    71    49    60        -107.97550
  571 Torsion                 45    71    49    70         131.75900
  572 Torsion                 45    71    49    75          11.65025
  573 Torsion                 46    57    41    52         -81.88880
  574 Torsion                 46    57    41    58          38.48180
  575 Torsion                 46    57    41    78         156.26546
  576 Torsion                 46    67    45    66         171.96019
  577 Torsion                 46    67    45    71          52.98017
  578 Torsion                 46    67    45    72         -69.32934
  579 Torsion                 46    68    47    54        -130.07071
  580 Torsion                 46    68    47    62         -11.22220
  581 Torsion                 46    68    47    69         108.95812
  582 Torsion                 47    54    38    50          90.04109
  583 Torsion                 47    54    38    76        -146.24059
  584 Torsion                 47    68    46    57         129.52849
  585 Torsion                 47    68    46    61           8.64317
  586 Torsion                 47    68    46    67        -113.01916
  587 Torsion                 47    69    48    70        -121.05606
  588 Torsion                 47    69    48    73          -0.57647
  589 Torsion                 47    69    48    77         120.81555
  590 Torsion                 48    69    47    54         -55.02376
  591 Torsion                 48    69    47    62        -178.62802
  592 Torsion                 48    69    47    68          65.52567
  593 Torsion                 48    70    49    60        -132.17169
  594 Torsion                 48    70    49    71         -13.30067
  595 Torsion                 48    70    49    75         103.54903
  596 Torsion                 48    77    42    53        -167.34410
  597 Torsion                 48    77    42    56         -49.09333
  598 Torsion                 48    77    42    59          70.73550
  599 Torsion                 49    70    48    69          51.31612
  600 Torsion                 49    70    48    73         -68.78047
  601 Torsion                 49    70    48    77         168.46475
  602 Torsion                 49    71    45    66          51.48552
  603 Torsion                 49    71    45    67         171.81655
  604 Torsion                 49    71    45    72         -64.90406
  605 Torsion                 49    75    40    51         -16.49136
  606 Torsion                 49    75    40    74         101.52200
  607 Torsion                 50    39     4    80        -115.85710
  608 Torsion                  4    15    50    39        -170.77235
  609 Torsion                 50    39    84    85          36.63134
  610 Torsion                 51    40     1    86         140.16509
  611 Torsion                 52    39     4    80         127.26438
  612 Torsion                  4    15    52    39         177.12479
  613 Torsion                 52    39    84    85         156.48875
  614 Torsion                 52    41    78    79         -92.59356
  615 Torsion                 53    42    59   100          71.57588
  616 Torsion                 54    47    62    97         -69.49850
  617 Torsion                 55     2    12    87         108.44053
  618 Torsion                 55    43    63    99         -49.21255
  619 Torsion                 55    43    44    65        -149.04173
  620 Torsion                 55    43    44    76          91.02356
  621 Torsion                 43    55    64    44         176.08584
  622 Torsion                 56    42    53    96        -156.57579
  623 Torsion                 56    42    59   100         -46.77151
  624 Torsion                 56    43    63    99          71.17678
  625 Torsion                 56    43    44    65          91.61237
  626 Torsion                 56    43    44    76         -28.32234
  627 Torsion                 43    56    64    44        -179.19868
  628 Torsion                 57    41    78    79          30.13260
  629 Torsion                 57    46    61   101        -116.84621
  630 Torsion                 58    41    78    79         149.55873
  631 Torsion                 59    42    53    96          83.51224
  632 Torsion                 63    43    44    65         -30.10807
  633 Torsion                 63    43    44    76        -150.04278
  634 Torsion                 43    63    64    44        -177.01967
  635 Torsion                 64    43    63    99        -168.30671
  636 Torsion                 64    44    65   103          76.79154
  637 Torsion                 43    64    65    44         175.76085
  638 Torsion                 67    45    66   102         -21.74674
  639 Torsion                 67    46    61   101         119.14171
  640 Torsion                 68    46    61   101           0.69856
  641 Torsion                 68    47    62    97         173.49828
  642 Torsion                 69    47    62    97          52.98796
  643 Torsion                 70    49    60    98         -45.17094
  644 Torsion                 71    45    66   102          97.92791
  645 Torsion                 71    49    60    98        -163.91560
  646 Torsion                 72     6    23    90         -64.38716
  647 Torsion                 72    45    66   102        -143.48845
  648 Torsion                 74     9    33    88          62.13740
  649 Torsion                 74    40     1    86          20.90988
  650 Torsion                 74    40    51    93        -146.54607
  651 Torsion                 75    40     1    86        -100.04023
  652 Torsion                 75    40    51    93         -27.66905
  653 Torsion                 75    49    60    98          79.39506
  654 Torsion                 43    64    76    44        -178.62718
  655 Torsion                 76    44    65   103        -163.35766
  656 Torsion                 77    42    53    96         -35.54246
  657 Torsion                 77    42    59   100        -167.81194
  658 Torsion                 80     4    39    84           7.99672
  659 Torsion                  4    80    15    39        -174.22089
  660 Torsion                 82     5    21    94         -26.73272
  661 Torsion                  4    15    84    39         173.09193
  662 Torsion                 91    20   112   106        -103.70166
  663 Torsion                104   105   106   112          64.74087
  664 Torsion                104   105   107   113         -59.61998
  665 Torsion                104   105   107   114         179.88568
  666 Torsion                104   105   107   115          59.38651
  667 Torsion                106   105   104   108          60.58581
  668 Torsion                106   105   104   109         -60.00682
  669 Torsion                106   105   104   110        -179.09493
  670 Torsion                106   105   107   113          63.89163
  671 Torsion                106   105   107   114         -56.60271
  672 Torsion                106   105   107   115        -177.10188
  673 Torsion                107   105   104   108        -176.26292
  674 Torsion                107   105   104   109          63.14445
  675 Torsion                107   105   104   110         -55.94367
  676 Torsion                107   105   106   112         -59.74756
  677 Torsion                108   104   105   111         -53.67433
  678 Torsion                109   104   105   111        -174.26697
  679 Torsion                110   104   105   111          66.64492
  680 Torsion                111   105   106   112        -177.24979
  681 Torsion                111   105   107   113         177.69368
  682 Torsion                111   105   107   114          57.19934
  683 Torsion                111   105   107   115         -63.29983


            XYZ format geometry
            -------------------
   115
 geometry
 O                    -2.20243943     6.83700595    -3.20701215
 Si                   -3.75024404    -2.00402203    -2.16134750
 Si                    1.80718630    -3.86590476    -1.06857984
 Si                    4.35006354    -3.23344320     0.72972610
 Si                    5.65573628    -0.73406659    -0.69925160
 Si                    1.83528044     3.43674495    -1.82197517
 Si                    2.98647456     0.88820661    -0.64661407
 Si                    0.45634112    -1.03816196    -0.57557846
 Si                   -0.76333362     2.84392055    -3.56498630
 Si                   -1.75431390    -4.20386191    -2.89645277
 Si                   -0.64553383    -5.54349051    -0.26256589
 O                    -4.61263554    -2.53096870    -3.44324420
 O                     3.18702035    -3.72327715    -0.28271730
 O                     5.27498341    -2.14268153     0.00305596
 O                     3.63497177    -2.53734632     1.99582971
 O                    -2.27584769    -2.74814754    -2.29243845
 O                    -0.07430750    -1.12011671     0.93474712
 O                     0.94380361    -2.51014116    -0.99984502
 O                     4.25094474    -0.00553498    -1.05292507
 O                     2.08193495    -4.14889579    -2.66425689
 O                     6.50850850    -1.05078807    -2.03690069
 O                    -0.43563831    -3.94059430    -3.76021558
 O                     2.63967968     4.68218137    -2.45491001
 O                     2.84646430     2.19799192    -1.56099905
 O                     1.58471960     0.07526742    -0.67248065
 O                    -0.85708310    -0.75850464    -1.56493401
 O                    -1.66429101     1.71918775    -2.89971499
 O                     0.65355456     2.94545240    -2.78487508
 O                    -2.97606464    -4.79639268    -3.75163526
 O                    -1.40344921    -5.14437787    -1.62951112
 O                    -0.71141366    -7.12920639     0.00098997
 O                    -1.31163955    -4.79108860     0.98560682
 O                    -0.51035119     2.49939784    -5.12620489
 O                    -3.44841816    -0.44814674    -2.18875851
 O                     0.89073210    -5.04019454    -0.45910577
 Al                   -2.13805889     0.58780260    -1.73070610
 H                    -1.28040628    -1.60270706    -1.95381495
 Si                   -0.15654525    -1.49368654     2.50746568
 Si                    2.93572011    -1.70956840     3.18807782
 Si                   -1.43880287     5.63142326    -2.45241956
 Si                    3.73198298     1.27203302     2.42338311
 Si                   -5.47440012     0.21006845     1.92255485
 Si                   -4.70588680    -2.69525746     0.78862714
 Si                   -2.07359406    -3.95163535     2.13479531
 Si                    0.75476209     4.75865707     0.84679279
 Si                    1.57982903     3.18481333     3.31836761
 Si                   -0.91373880     1.38541103     3.34784636
 Si                   -3.01219329     1.96060428     1.05035656
 Si                   -2.33243873     4.89524528     0.50515464
 O                     1.33508289    -1.82465459     3.01176919
 O                     0.10005203     6.04862412    -2.12048781
 O                     3.37250998    -0.16470628     3.04752894
 O                    -6.96922703     0.48455022     1.36259240
 O                    -0.74448189    -0.22120037     3.29809675
 O                    -4.43724794    -2.49133526    -0.79312499
 O                    -5.05657336    -1.26666072     1.43451402
 O                     3.02995601     2.46361153     3.25035634
 O                     3.24273960     1.30204368     0.89939318
 O                    -5.40984236     0.28415721     3.54089718
 O                    -2.99457931     6.10992648     1.33488840
 O                     1.22864545     3.70217093     4.80165356
 O                    -1.13958196     1.91313194     4.87288558
 O                    -5.90332250    -3.75324794     1.01523646
 O                    -3.38505694    -3.29284837     1.47670388
 O                    -2.43421082    -4.89257203     3.38953989
 O                     1.10505684     6.30030739     0.41923311
 O                     1.51213816     4.36872217     2.21619826
 O                     0.47776348     2.06749552     2.89959707
 O                    -2.12115179     1.82331224     2.39808491
 O                    -3.18051326     3.53788211     0.70531085
 O                    -0.83488445     4.64622978     1.06570553
 O                     1.21167792     3.82644041    -0.37171875
 O                    -2.28835166     1.20779747    -0.14915701
 O                    -1.41778926     4.32963639    -3.40504434
 O                    -2.17899203     5.27442457    -1.05559870
 O                    -1.10628718    -2.77356080     2.65937251
 O                    -4.46429620     1.32402665     1.35416856
 O                     5.35356378     1.48660899     2.41848396
 H                     5.84772643     1.91438795     3.12444709
 O                     5.21819288    -4.51717758     1.16431074
 H                     6.16348867    -4.54676461     1.32209704
 O                     6.51900506     0.20393121     0.27221788
 H                     6.23644300     0.72578733     1.04372407
 O                     3.38755885    -2.24486518     4.63561743
 H                     3.02251890    -2.97913361     5.13208197
 H                    -2.81988907     6.74071043    -3.93463965
 H                    -5.14643874    -1.96053632    -4.00395415
 H                     0.07081251     2.97281663    -5.72441180
 H                     0.50520545    -4.05634650    -3.55970944
 H                     2.14641838     5.48233368    -2.68131159
 H                     2.86768632    -4.59061702    -3.00338773
 H                    -3.75885546    -4.27100054    -3.97016868
 H                     0.43836020     6.44228324    -1.29597297
 H                     7.19106390    -0.47541266    -2.39019356
 H                    -0.62613635    -7.83603356    -0.64081062
 H                    -7.35075995     1.35261542     1.21428754
 H                    -1.92669642     1.76086814     5.40290322
 H                    -3.92254495     6.34557531     1.38245881
 H                    -6.76333349    -3.74940987     0.59067602
 H                    -5.77888168    -0.36875209     4.14001490
 H                     0.47041665     3.33158933     5.27693028
 H                     1.41863869     6.98419302     1.01742291
 H                    -2.79777239    -5.77963892     3.36975613
 C                     2.08142132    -0.08031698    -5.38376658
 C                     3.09355797    -0.33141679    -4.26210157
 O                     2.49050487    -1.11488520    -3.19569210
 C                     4.35972914    -1.02718780    -4.76882875
 H                     1.22189700     0.46903355    -5.02324193
 H                     1.73981593    -1.02373803    -5.79961402
 H                     2.54432462     0.49070402    -6.18141928
 H                     3.35384197     0.59897122    -3.78593070
 H                     2.25267643    -1.99975455    -3.50191296
 H                     4.10746371    -1.98631905    -5.21448283
 H                     5.04859205    -1.18496295    -3.95112301
 H                     4.84355147    -0.42423459    -5.52923657

 ==============================================================================
                                internuclear distances
 ------------------------------------------------------------------------------
       center one      |      center two      | atomic units |  angstroms
 ------------------------------------------------------------------------------
   12 O                |   2 Si               |     3.08474  |     1.63238
   13 O                |   3 Si               |     3.01283  |     1.59432
   13 O                |   4 Si               |     3.05742  |     1.61791
   14 O                |   4 Si               |     3.03140  |     1.60415
   14 O                |   5 Si               |     3.06019  |     1.61938
   15 O                |   4 Si               |     3.04646  |     1.61212
   16 O                |   2 Si               |     3.13076  |     1.65673
   16 O                |  10 Si               |     3.13714  |     1.66010
   17 O                |   8 Si               |     3.02910  |     1.60293
   18 O                |   3 Si               |     3.04020  |     1.60880
   18 O                |   8 Si               |     3.03790  |     1.60759
   19 O                |   5 Si               |     3.06420  |     1.62151
   19 O                |   7 Si               |     3.02518  |     1.60086
   20 O                |   3 Si               |     3.10615  |     1.64370
   21 O                |   5 Si               |     3.05694  |     1.61766
   22 O                |  10 Si               |     3.02019  |     1.59822
   23 O                |   6 Si               |     3.04637  |     1.61207
   24 O                |   6 Si               |     3.06177  |     1.62022
   24 O                |   7 Si               |     3.03019  |     1.60351
   25 O                |   7 Si               |     3.06256  |     1.62063
   25 O                |   8 Si               |     3.00125  |     1.58819
   26 O                |   8 Si               |     3.15200  |     1.66797
   27 O                |   9 Si               |     2.99945  |     1.58724
   28 O                |   6 Si               |     3.02653  |     1.60157
   28 O                |   9 Si               |     3.06255  |     1.62063
   29 O                |  10 Si               |     3.03247  |     1.60471
   30 O                |  10 Si               |     3.05459  |     1.61642
   30 O                |  11 Si               |     3.04842  |     1.61315
   31 O                |  11 Si               |     3.04023  |     1.60882
   32 O                |  11 Si               |     3.02813  |     1.60242
   33 O                |   9 Si               |     3.05885  |     1.61867
   34 O                |   2 Si               |     2.99544  |     1.58512
   35 O                |   3 Si               |     3.04140  |     1.60944
   35 O                |  11 Si               |     3.07744  |     1.62851
   36 Al               |  26 O                |     3.52571  |     1.86572
   36 Al               |  27 O                |     3.20200  |     1.69442
   36 Al               |  34 O                |     3.27313  |     1.73206
   37 H                |  26 O                |     1.93003  |     1.02133
   38 Si               |  17 O                |     3.05865  |     1.61857
   39 Si               |  15 O                |     3.04453  |     1.61109
   40 Si               |   1 O                |     3.05059  |     1.61430
   44 Si               |  32 O                |     3.05054  |     1.61428
   50 O                |  38 Si               |     3.04053  |     1.60898
   50 O                |  39 Si               |     3.05082  |     1.61443
   51 O                |  40 Si               |     3.07759  |     1.62859
   52 O                |  39 Si               |     3.04541  |     1.61156
   52 O                |  41 Si               |     3.03711  |     1.60717
   53 O                |  42 Si               |     3.06078  |     1.61969
   54 O                |  38 Si               |     3.04122  |     1.60934
   54 O                |  47 Si               |     3.05430  |     1.61627
   55 O                |   2 Si               |     3.03622  |     1.60670
   55 O                |  43 Si               |     3.05627  |     1.61731
   56 O                |  42 Si               |     3.04328  |     1.61043
   56 O                |  43 Si               |     3.03596  |     1.60656
   57 O                |  41 Si               |     3.04509  |     1.61139
   57 O                |  46 Si               |     3.06324  |     1.62100
   58 O                |   7 Si               |     3.06291  |     1.62082
   58 O                |  41 Si               |     3.02522  |     1.60088
   59 O                |  42 Si               |     3.06386  |     1.62132
   60 O                |  49 Si               |     3.04846  |     1.61318
   61 O                |  46 Si               |     3.04189  |     1.60970
   62 O                |  47 Si               |     3.07929  |     1.62949
   63 O                |  43 Si               |     3.04976  |     1.61386
   64 O                |  43 Si               |     3.03250  |     1.60473
   64 O                |  44 Si               |     3.03948  |     1.60842
   65 O                |  44 Si               |     3.04110  |     1.60928
   66 O                |  45 Si               |     3.09488  |     1.63774
   67 O                |  45 Si               |     3.04764  |     1.61274
   67 O                |  46 Si               |     3.05937  |     1.61895
   68 O                |  46 Si               |     3.06946  |     1.62429
   68 O                |  47 Si               |     3.04852  |     1.61321
   69 O                |  47 Si               |     3.01863  |     1.59739
   69 O                |  48 Si               |     3.06414  |     1.62147
   70 O                |  48 Si               |     3.06764  |     1.62333
   70 O                |  49 Si               |     3.04810  |     1.61299
   71 O                |  45 Si               |     3.03978  |     1.60858
   71 O                |  49 Si               |     3.05814  |     1.61830
   72 O                |   6 Si               |     3.07276  |     1.62603
   72 O                |  45 Si               |     3.02508  |     1.60080
   73 O                |  36 Al               |     3.22268  |     1.70537
   73 O                |  48 Si               |     3.00549  |     1.59044
   74 O                |   9 Si               |     3.08277  |     1.63133
   74 O                |  40 Si               |     3.04861  |     1.61325
   75 O                |  40 Si               |     3.06254  |     1.62063
   75 O                |  49 Si               |     3.04901  |     1.61347
   76 O                |  38 Si               |     3.02543  |     1.60099
   76 O                |  44 Si               |     3.04634  |     1.61206
   77 O                |  42 Si               |     3.03786  |     1.60757
   77 O                |  48 Si               |     3.05068  |     1.61435
   78 O                |  41 Si               |     3.09107  |     1.63572
   79 H                |  78 O                |     1.81805  |     0.96207
   80 O                |   4 Si               |     3.04151  |     1.60950
   81 H                |  80 O                |     1.81193  |     0.95883
   82 O                |   5 Si               |     3.02877  |     1.60276
   83 H                |  82 O                |     1.83935  |     0.97334
   84 O                |  39 Si               |     3.03892  |     1.60813
   85 H                |  84 O                |     1.81146  |     0.95858
   86 H                |   1 O                |     1.81252  |     0.95914
   87 H                |  12 O                |     1.81722  |     0.96163
   88 H                |  33 O                |     1.81229  |     0.95902
   89 H                |  22 O                |     1.83098  |     0.96891
   90 H                |  23 O                |     1.82709  |     0.96685
   91 H                |  20 O                |     1.81997  |     0.96308
   92 H                |  29 O                |     1.82880  |     0.96776
   93 H                |  51 O                |     1.84114  |     0.97429
   94 H                |  21 O                |     1.81429  |     0.96008
   95 H                |  31 O                |     1.81136  |     0.95853
   96 H                |  53 O                |     1.81364  |     0.95974
   97 H                |  62 O                |     1.81616  |     0.96107
   98 H                |  60 O                |     1.81149  |     0.95860
   99 H                |  63 O                |     1.81245  |     0.95911
  100 H                |  59 O                |     1.81396  |     0.95991
  101 H                |  61 O                |     1.83033  |     0.96857
  102 H                |  66 O                |     1.81636  |     0.96118
  103 H                |  65 O                |     1.81203  |     0.95888
  105 C                | 104 C                |     2.89418  |     1.53154
  106 O                | 105 C                |     2.74806  |     1.45421
  107 C                | 105 C                |     2.89323  |     1.53103
  108 H                | 104 C                |     2.04453  |     1.08192
  109 H                | 104 C                |     2.05248  |     1.08612
  110 H                | 104 C                |     2.04980  |     1.08471
  111 H                | 105 C                |     2.03539  |     1.07708
  112 H                | 106 O                |     1.82564  |     0.96609
  113 H                | 107 C                |     2.05466  |     1.08728
  114 H                | 107 C                |     2.04236  |     1.08077
  115 H                | 107 C                |     2.04916  |     1.08437
 ------------------------------------------------------------------------------
                         number of included internuclear distances:        126
 ==============================================================================



 ==============================================================================
                                 internuclear angles
 ------------------------------------------------------------------------------
        center 1       |       center 2       |       center 3       |  degrees
 ------------------------------------------------------------------------------
   40 Si               |   1 O                |  86 H                |   125.74
   12 O                |   2 Si               |  16 O                |   105.25
[...]

        Paramagnetic
      0.5690      3.0086     -0.6883
      3.0086     -0.8458      0.9326
     -0.6883      0.9326      5.4028

        Total Shielding Tensor
     33.8137     -9.6912      2.0320
     -9.6912     36.7005     -3.2946
      2.0320     -3.2946     22.7319

           isotropic =      31.0821
          anisotropy =      21.9149

          Principal Components and Axis System
                 1           2           3
               45.6920     25.5637     21.9905

      1        -0.6403      0.7677      0.0248
      2         0.7503      0.6183      0.2340
      3        -0.1643     -0.1684      0.9719



      Atom:   97  H 
        Diamagnetic
     34.4346      2.7534    -14.9745
      2.7534     17.2737      0.8484
    -14.9745      0.8484     35.7359

        Paramagnetic
      0.4550     -0.9117      3.4413
     -0.9117      4.7907     -0.4942
      3.4413     -0.4942     -0.0508

        Total Shielding Tensor
     34.8896      1.8417    -11.5332
      1.8417     22.0644      0.3542
    -11.5332      0.3542     35.6850

           isotropic =      30.8797
          anisotropy =      23.9854

          Principal Components and Axis System
                 1           2           3
               46.8700     24.6752     21.0938

      1        -0.6962      0.6027     -0.3899
      2        -0.0415      0.5085      0.8600
      3         0.7166      0.6150     -0.3291



      Atom:   98  H 
        Diamagnetic
     43.4089    -12.2224     -5.0898
    -12.2224     25.9648      3.4812
     -5.0898      3.4812     17.9975

        Paramagnetic
     -2.2384      2.9372      0.9802
      2.9372      2.5714     -1.0536
      0.9802     -1.0536      4.9603

        Total Shielding Tensor
     41.1705     -9.2852     -4.1097
     -9.2852     28.5363      2.4276
     -4.1097      2.4276     22.9578

           isotropic =      30.8882
          anisotropy =      24.2100

          Principal Components and Axis System
                 1           2           3
               47.0282     23.6523     21.9841

      1         0.8662      0.4880      0.1080
      2        -0.4604      0.8632     -0.2072
      3        -0.1943      0.1298      0.9723



      Atom:   99  H 
        Diamagnetic
     46.4517      6.6159      8.2114
      6.6159     20.4082      0.4431
      8.2114      0.4431     20.6993

        Paramagnetic
     -2.6065     -1.7093     -2.3683
     -1.7093      4.1724      0.1688
     -2.3683      0.1688      3.8896

        Total Shielding Tensor
     43.8452      4.9065      5.8432
      4.9065     24.5806      0.6118
      5.8432      0.6118     24.5889

           isotropic =      31.0049
          anisotropy =      23.3450

          Principal Components and Axis System
                 1           2           3
               46.5682     23.9874     22.4591

      1         0.9418     -0.0225     -0.3354
      2         0.2173      0.8020      0.5564
      3         0.2564     -0.5969      0.7603



      Atom:  100  H 
        Diamagnetic
     23.6572      6.0788     -9.8879
      6.0788     27.7237    -10.6202
     -9.8879    -10.6202     36.9621

        Paramagnetic
      3.3437     -2.0266      2.7974
     -2.0266      1.8189      2.5543
      2.7974      2.5543      0.0003

        Total Shielding Tensor
     27.0009      4.0522     -7.0905
      4.0522     29.5427     -8.0659
     -7.0905     -8.0659     36.9624

           isotropic =      31.1686
          anisotropy =      21.7842

          Principal Components and Axis System
                 1           2           3
               45.6915     24.5078     23.3067

      1        -0.4001     -0.3039      0.8646
      2        -0.4879      0.8692      0.0798
      3         0.7758      0.3899      0.4961



      Atom:  101  H 
        Diamagnetic
     31.3786      9.6385    -11.0303
      9.6385     19.9795      1.2328
    -11.0303      1.2328     32.3324

        Paramagnetic
      0.8368     -2.2843      2.7899
     -2.2843      3.2091     -0.6738
      2.7899     -0.6738     -0.5497

        Total Shielding Tensor
     32.2154      7.3542     -8.2404
      7.3542     23.1887      0.5590
     -8.2404      0.5590     31.7827

           isotropic =      29.0623
          anisotropy =      18.8992

          Principal Components and Axis System
                 1           2           3
               41.6617     28.1628     17.3622

      1         0.7453      0.3545     -0.5648
      2         0.2784      0.6043      0.7466
      3        -0.6059      0.7136     -0.3517



      Atom:  102  H 
        Diamagnetic
     19.7338      9.2477      5.9396
      9.2477     41.6144     11.0567
      5.9396     11.0567     25.9738

        Paramagnetic
      4.5798     -2.2825     -1.3970
     -2.2825     -1.8019     -2.0363
     -1.3970     -2.0363      2.3959

        Total Shielding Tensor
     24.3136      6.9652      4.5426
      6.9652     39.8125      9.0204
      4.5426      9.0204     28.3697

           isotropic =      30.8319
          anisotropy =      25.3223

          Principal Components and Axis System
                 1           2           3
               47.7135     23.5655     21.2169

      1         0.3342      0.2417      0.9110
      2         0.8217     -0.5482     -0.1560
      3         0.4617      0.8007     -0.3818



      Atom:  103  H 
        Diamagnetic
     21.2525     10.9936     -3.2246
     10.9936     43.8872     -6.7308
     -3.2246     -6.7308     21.8757

        Paramagnetic
      4.0133     -2.9950      0.8390
     -2.9950     -2.1463      1.4908
      0.8390      1.4908      3.2188

        Total Shielding Tensor
     25.2658      7.9986     -2.3856
      7.9986     41.7410     -5.2400
     -2.3856     -5.2400     25.0945

           isotropic =      30.7004
          anisotropy =      23.7433

          Principal Components and Axis System
                 1           2           3
               46.5293     23.5853     21.9866

      1         0.3654     -0.0399      0.9300
      2         0.8940      0.2933     -0.3387
      3        -0.2592      0.9552      0.1429



      Atom:  104  C 
        Diamagnetic
    247.4112     -2.8854      7.0841
     -2.8854    241.2655     -3.7607
      7.0841     -3.7607    256.1754

        Paramagnetic
    -51.9112     -0.4934      5.2872
     -0.4934    -60.6398     -5.5440
      5.2872     -5.5440    -56.0586

        Total Shielding Tensor
    195.5000     -3.3788     12.3713
     -3.3788    180.6257     -9.3047
     12.3713     -9.3047    200.1168

           isotropic =     192.0808
          anisotropy =      31.5280

          Principal Components and Axis System
                 1           2           3
              213.0995    186.4138    176.7291

      1         0.5875      0.8012     -0.1137
      2        -0.2788      0.3323      0.9010
      3         0.7597     -0.4977      0.4186



      Atom:  105  C 
        Diamagnetic
    245.3085     -5.8306     -2.9691
     -5.8306    230.8907     -4.7485
     -2.9691     -4.7485    246.9503

        Paramagnetic
    -87.1521     14.1695    -13.2042
     14.1695    -78.5624    -22.0893
    -13.2042    -22.0893    -79.0486

        Total Shielding Tensor
    158.1565      8.3390    -16.1733
      8.3390    152.3283    -26.8378
    -16.1733    -26.8378    167.9016

           isotropic =     159.4622
          anisotropy =      55.5382

          Principal Components and Axis System
                 1           2           3
              196.4876    150.1761    131.7228

      1        -0.4251      0.8934      0.1453
      2        -0.5274     -0.3749      0.7625
      3         0.7356      0.2475      0.6305



      Atom:  106  O 
        Diamagnetic
    376.7738     10.9200    -10.2244
     10.9200    393.4510     -5.0013
    -10.2244     -5.0013    392.7106

        Paramagnetic
    -89.4698     12.0310      4.3821
     12.0310    -53.5571     14.3712
      4.3821     14.3712    -86.6702

        Total Shielding Tensor
    287.3040     22.9510     -5.8423
     22.9510    339.8939      9.3699
     -5.8423      9.3699    306.0404

           isotropic =     311.0795
          anisotropy =      57.7296

          Principal Components and Axis System
                 1           2           3
              349.5659    307.5920    276.0805

      1         0.3287     -0.3229      0.8875
      2         0.9314     -0.0448     -0.3612
      3         0.1564      0.9454      0.2860



      Atom:  107  C 
        Diamagnetic
    255.5010     -6.4587     -9.1450
     -6.4587    243.2612      2.8540
     -9.1450      2.8540    247.2922

        Paramagnetic
    -50.1600     -5.1975     -3.2400
     -5.1975    -57.6341     -3.1725
     -3.2400     -3.1725    -60.9310

        Total Shielding Tensor
    205.3410    -11.6562    -12.3850
    -11.6562    185.6271     -0.3186
    -12.3850     -0.3186    186.3611

           isotropic =     192.4431
          anisotropy =      34.0762

          Principal Components and Axis System
                 1           2           3
              215.1606    186.2993    175.8694

      1         0.8660      0.0218      0.4996
      2        -0.3378     -0.7111      0.6166
      3        -0.3687      0.7028      0.6084



      Atom:  108  H 
        Diamagnetic
     32.9280     -9.7718     -2.9560
     -9.7718     27.6824      1.2357
     -2.9560      1.2357     28.8938

        Paramagnetic
      0.6292      2.5642      1.3229
      2.5642      2.9107     -0.4209
      1.3229     -0.4209      1.3811

        Total Shielding Tensor
     33.5572     -7.2076     -1.6330
     -7.2076     30.5931      0.8148
     -1.6330      0.8148     30.2749

           isotropic =      31.4750
          anisotropy =      12.4392

          Principal Components and Axis System
                 1           2           3
               39.7679     29.9704     24.6869

      1         0.7648      0.0957      0.6371
      2        -0.6172     -0.1744      0.7672
      3        -0.1846      0.9800      0.0743



      Atom:  109  H 
        Diamagnetic
     26.6382      3.6593      2.9219
      3.6593     31.7858      4.5811
      2.9219      4.5811     33.8832

        Paramagnetic
      4.4064     -1.7676     -1.2013
     -1.7676      0.7787     -2.3038
     -1.2013     -2.3038      1.2418

        Total Shielding Tensor
     31.0446      1.8917      1.7205
      1.8917     32.5645      2.2773
      1.7205      2.2773     35.1249

           isotropic =      32.9113
          anisotropy =       6.7439

          Principal Components and Axis System
                 1           2           3
               37.4073     31.5675     29.7592

      1         0.3624      0.3940      0.8446
      2         0.5088      0.6756     -0.5335
      3         0.7809     -0.6231     -0.0444



      Atom:  110  H 
        Diamagnetic
     26.3961      0.5642     -3.7709
      0.5642     27.6545     -6.8253
     -3.7709     -6.8253     38.7437

        Paramagnetic
      3.6312     -0.9830      1.8149
     -0.9830      3.3224      1.9808
      1.8149      1.9808     -0.5819

        Total Shielding Tensor
     30.0273     -0.4187     -1.9560
     -0.4187     30.9769     -4.8445
     -1.9560     -4.8445     38.1617

           isotropic =      33.0553
          anisotropy =      11.6592

          Principal Components and Axis System
                 1           2           3
               40.8282     30.5618     27.7761

      1        -0.1445      0.8428      0.5185
      2        -0.4317     -0.5252      0.7334
      3         0.8904     -0.1179      0.4397



      Atom:  111  H 
        Diamagnetic
     23.9971      1.2761     -1.4238
      1.2761     33.2504      5.1257
     -1.4238      5.1257     32.5756

        Paramagnetic
      1.8152     -0.8794      0.1366
     -0.8794     -2.1400     -2.5618
      0.1366     -2.5618     -0.5931

        Total Shielding Tensor
     25.8123      0.3967     -1.2872
      0.3967     31.1104      2.5639
     -1.2872      2.5639     31.9825

           isotropic =      29.6351
          anisotropy =       6.8655

          Principal Components and Axis System
                 1           2           3
               34.2120     29.3026     25.3905

      1        -0.0888      0.3001      0.9498
      2         0.6278      0.7571     -0.1805
      3         0.7733     -0.5803      0.2556



      Atom:  112  H 
        Diamagnetic
     21.1516      7.7975     -3.0439
      7.7975     41.7725      2.4750
     -3.0439      2.4750     27.5484

        Paramagnetic
      5.4297     -1.3694      0.3840
     -1.3694      1.3803     -1.9176
      0.3840     -1.9176      3.5693

        Total Shielding Tensor
     26.5813      6.4282     -2.6598
      6.4282     43.1528      0.5573
     -2.6598      0.5573     31.1177

           isotropic =      33.6173
          anisotropy =      17.6170

          Principal Components and Axis System
                 1           2           3
               45.3620     32.0568     23.4330

      1         0.3268     -0.3058      0.8943
      2         0.9448      0.1298     -0.3009
      3        -0.0241      0.9432      0.3313



      Atom:  113  H 
        Diamagnetic
     27.5890     -0.7710     -3.6859
     -0.7710     34.7402      6.7174
     -3.6859      6.7174     30.9973

        Paramagnetic
      3.9797     -0.5424      1.1028
     -0.5424     -0.0345     -3.1618
      1.1028     -3.1618      2.5146

        Total Shielding Tensor
     31.5687     -1.3133     -2.5831
     -1.3133     34.7057      3.5556
     -2.5831      3.5556     33.5119

           isotropic =      33.2621
          anisotropy =       8.2047

          Principal Components and Axis System
                 1           2           3
               38.7319     31.5793     29.4751

      1        -0.3557      0.6622      0.6595
      2         0.6812      0.6668     -0.3022
      3         0.6400     -0.3418      0.6882



      Atom:  114  H 
        Diamagnetic
     34.4914     -3.3618      4.7351
     -3.3618     19.2902     -0.4684
      4.7351     -0.4684     34.7662

        Paramagnetic
      0.5837      1.0220     -0.8941
      1.0220      4.4106      0.6340
     -0.8941      0.6340     -0.0083

        Total Shielding Tensor
     35.0751     -2.3398      3.8410
     -2.3398     23.7007      0.1656
      3.8410      0.1656     34.7580

           isotropic =      31.1779
          anisotropy =      11.6246

          Principal Components and Axis System
                 1           2           3
               38.9277     31.4465     23.1596

      1         0.7335     -0.6436      0.2187
      2        -0.1054      0.2101      0.9720
      3         0.6715      0.7360     -0.0863



      Atom:  115  H 
        Diamagnetic
     32.1267      2.2757     -8.8845
      2.2757     26.0577     -4.2945
     -8.8845     -4.2945     34.6909

        Paramagnetic
      2.6288     -0.9891      2.8472
     -0.9891      3.1452      1.7374
      2.8472      1.7374      0.4988

        Total Shielding Tensor
     34.7554      1.2865     -6.0373
      1.2865     29.2029     -2.5570
     -6.0373     -2.5570     35.1896

           isotropic =      33.0493
          anisotropy =      12.8536

          Principal Components and Axis System
                 1           2           3
               41.6183     29.6102     27.9193

      1        -0.6674      0.6587      0.3473
      2        -0.2159     -0.6175      0.7563
      3         0.7127      0.4298      0.5544




 Task  times  cpu:    18624.5s     wall:    18632.5s


                                NWChem Input Module
                                -------------------


 Summary of allocated global arrays
-----------------------------------
  No active global arrays


MA_summarize_allocated_blocks: starting scan ...
MA_summarize_allocated_blocks: scan completed: 0 heap blocks, 0 stack blocks
MA usage statistics:

	allocation statistics:
					      heap	     stack
					      ----	     -----
	current number of blocks	         0	         0
	maximum number of blocks	        25	        34
	current total bytes		         0	         0
	maximum total bytes		   3527904	  51925832
	maximum total K-bytes		      3528	     51926
	maximum total M-bytes		         4	        52


                                     CITATION
                                     --------
                Please cite the following reference when publishing
                           results obtained with NWChem:

          E. Apra, E. J. Bylaska, W. A. de Jong, N. Govind, K. Kowalski,
       T. P. Straatsma, M. Valiev, H. J. J. van Dam, Y. Alexeev, J. Anchell,
       V. Anisimov, F. W. Aquino, R. Atta-Fynn, J. Autschbach, N. P. Bauman,
     J. C. Becca, D. E. Bernholdt, K. Bhaskaran-Nair, S. Bogatko, P. Borowski,
         J. Boschen, J. Brabec, A. Bruner, E. Cauet, Y. Chen, G. N. Chuev,
      C. J. Cramer, J. Daily, M. J. O. Deegan, T. H. Dunning Jr., M. Dupuis,
   K. G. Dyall, G. I. Fann, S. A. Fischer, A. Fonari, H. Fruchtl, L. Gagliardi,
      J. Garza, N. Gawande, S. Ghosh, K. Glaesemann, A. W. Gotz, J. Hammond,
       V. Helms, E. D. Hermes, K. Hirao, S. Hirata, M. Jacquelin, L. Jensen,
   B. G. Johnson, H. Jonsson, R. A. Kendall, M. Klemm, R. Kobayashi, V. Konkov,
      S. Krishnamoorthy, M. Krishnan, Z. Lin, R. D. Lins, R. J. Littlefield,
      A. J. Logsdail, K. Lopata, W. Ma, A. V. Marenich, J. Martin del Campo,
   D. Mejia-Rodriguez, J. E. Moore, J. M. Mullin, T. Nakajima, D. R. Nascimento,
    J. A. Nichols, P. J. Nichols, J. Nieplocha, A. Otero-de-la-Roza, B. Palmer,
    A. Panyala, T. Pirojsirikul, B. Peng, R. Peverati, J. Pittner, L. Pollack,
   R. M. Richard, P. Sadayappan, G. C. Schatz, W. A. Shelton, D. W. Silverstein,
   D. M. A. Smith, T. A. Soares, D. Song, M. Swart, H. L. Taylor, G. S. Thomas,
            V. Tipparaju, D. G. Truhlar, K. Tsemekhman, T. Van Voorhis,
      A. Vazquez-Mayagoitia, P. Verma, O. Villa, A. Vishnu, K. D. Vogiatzis,
        D. Wang, J. H. Weare, M. J. Williamson, T. L. Windus, K. Wolinski,
        A. T. Wong, Q. Wu, C. Yang, Q. Yu, M. Zacharias, Z. Zhang, Y. Zhao,
                                and R. J. Harrison
                        "NWChem: Past, present, and future
                         J. Chem. Phys. 152, 184102 (2020)
                               doi:10.1063/5.0004997

                                      AUTHORS
                                      -------
  E. Apra, E. J. Bylaska, N. Govind, K. Kowalski, M. Valiev, D. Mejia-Rodriguez,
       A. Kunitsa, N. P. Bauman, A. Panyala, W. A. de Jong, T. P. Straatsma,
        H. J. J. van Dam, D. Wang, T. L. Windus, J. Hammond, J. Autschbach,
    K. Bhaskaran-Nair, J. Brabec, K. Lopata, S. A. Fischer, S. Krishnamoorthy,
     M. Jacquelin, W. Ma, M. Klemm, O. Villa, Y. Chen, V. Anisimov, F. Aquino,
    S. Hirata, M. T. Hackler, Eric Hermes, L. Jensen, J. E. Moore, J. C. Becca,
      V. Konjkov, T. Risthaus, M. Malagoli, A. Marenich, A. Otero-de-la-Roza,
        J. Mullin, P. Nichols, R. Peverati, J. Pittner, Y. Zhao, P.-D. Fan,
        A. Fonari, M. J. Williamson, R. J. Harrison, J. R. Rehr, M. Dupuis,
     D. Silverstein, D. M. A. Smith, J. Nieplocha, V. Tipparaju, M. Krishnan,
     B. E. Van Kuiken, A. Vazquez-Mayagoitia, M. Swart, Q. Wu, T. Van Voorhis,
     A. A. Auer, M. Nooijen, L. D. Crosby, E. Brown, G. Cisneros, G. I. Fann,
   H. Fruchtl, J. Garza, K. Hirao, R. A. Kendall, J. A. Nichols, K. Tsemekhman,
    K. Wolinski, J. Anchell, D. E. Bernholdt, P. Borowski, T. Clark, D. Clerc,
   H. Dachsel, M. J. O. Deegan, K. Dyall, D. Elwood, E. Glendening, M. Gutowski,
   A. C. Hess, J. Jaffe, B. G. Johnson, J. Ju, R. Kobayashi, R. Kutteh, Z. Lin,
   R. Littlefield, X. Long, B. Meng, T. Nakajima, S. Niu, L. Pollack, M. Rosing,
   K. Glaesemann, G. Sandrone, M. Stave, H. Taylor, G. Thomas, J. H. van Lenthe,
                               A. T. Wong, Z. Zhang.

 Total times  cpu:    18630.6s     wall:    18638.7s
